,pretty_formula,spacegroup,material_id,e_above_hull,band_gap,elements,tolerance
329,KRb2AsI6,"{'symprec': 0.1, 'source': 'spglib', 'symbol': 'Fm-3m', 'number': 225, 'point_group': 'm-3m', 'crystal_system': 'cubic', 'hall': '-F 4 2 3'}",mp-1114510,0.0630220999999995,2.1806,"['As', 'I', 'K', 'Rb']",[4.664501295724884]
330,Rb2ScAgI6,"{'symprec': 0.1, 'source': 'spglib', 'symbol': 'Fm-3m', 'number': 225, 'point_group': 'm-3m', 'crystal_system': 'cubic', 'hall': '-F 4 2 3'}",mp-1113626,0.0198964320000003,2.192,"['Ag', 'I', 'Rb', 'Sc']",[4.687531472555564]
331,Cs2TlInBr6,"{'symprec': 0.1, 'source': 'spglib', 'symbol': 'Fm-3m', 'number': 225, 'point_group': 'm-3m', 'crystal_system': 'cubic', 'hall': '-F 4 2 3'}",mp-996944,0.0,2.1952,"['Cs', 'Tl', 'In', 'Br']",[4.404661624537908]
332,Cs2TbAuCl6,"{'symprec': 0.1, 'source': 'spglib', 'symbol': 'Fm-3m', 'number': 225, 'point_group': 'm-3m', 'crystal_system': 'cubic', 'hall': '-F 4 2 3'}",mp-1112921,0.0811134627999985,2.2022000000000004,"['Au', 'Cl', 'Cs', 'Tb']",[4.364766373819114]
333,Rb2NaScI6,"{'symprec': 0.1, 'source': 'spglib', 'symbol': 'Fm-3m', 'number': 225, 'point_group': 'm-3m', 'crystal_system': 'cubic', 'hall': '-F 4 2 3'}",mp-1114457,0.0,2.2025,"['I', 'Na', 'Rb', 'Sc']",[4.659874695886298]
334,Cs2LaCuCl6,"{'symprec': 0.1, 'source': 'spglib', 'symbol': 'Fm-3m', 'number': 225, 'point_group': 'm-3m', 'crystal_system': 'cubic', 'hall': '-F 4 2 3'}",mp-1113523,0.0525490888749979,2.2036,"['Cl', 'Cs', 'Cu', 'La']",[4.014737396037744]
335,Cs2TlBiCl6,"{'symprec': 0.1, 'source': 'spglib', 'symbol': 'Fm-3m', 'number': 225, 'point_group': 'm-3m', 'crystal_system': 'cubic', 'hall': '-F 4 2 3'}",mp-1112109,0.0064884923333323,2.2076,"['Bi', 'Cl', 'Cs', 'Tl']",[5.005760821988977]
336,Cs2ScAgI6,"{'symprec': 0.1, 'source': 'spglib', 'symbol': 'Fm-3m', 'number': 225, 'point_group': 'm-3m', 'crystal_system': 'cubic', 'hall': '-F 4 2 3'}",mp-1112938,0.0,2.2099,"['Ag', 'Cs', 'I', 'Sc']",[4.434151541093124]
337,Cs2NaScI6,"{'symprec': 0.1, 'source': 'spglib', 'symbol': 'Fm-3m', 'number': 225, 'point_group': 'm-3m', 'crystal_system': 'cubic', 'hall': '-F 4 2 3'}",mp-1112141,0.0,2.2218,"['Cs', 'I', 'Na', 'Sc']",[4.4705539202589755]
338,Cs2AlInBr6,"{'symprec': 0.1, 'source': 'spglib', 'symbol': 'Fm-3m', 'number': 225, 'point_group': 'm-3m', 'crystal_system': 'cubic', 'hall': '-F 4 2 3'}",mp-1113281,0.0513937977499998,2.2444,"['Al', 'Br', 'Cs', 'In']",[]
339,Cs2PrCuBr6,"{'symprec': 0.1, 'source': 'spglib', 'symbol': 'Fm-3m', 'number': 225, 'point_group': 'm-3m', 'crystal_system': 'cubic', 'hall': '-F 4 2 3'}",mp-1113355,0.0265107467499987,2.2451,"['Br', 'Cs', 'Cu', 'Pr']",[4.19420504046263]
340,Cs2NaBiI6,"{'symprec': 0.1, 'source': 'spglib', 'symbol': 'Fm-3m', 'number': 225, 'point_group': 'm-3m', 'crystal_system': 'cubic', 'hall': '-F 4 2 3'}",mp-1112659,0.0255680265000006,2.2463,"['Bi', 'Cs', 'I', 'Na']",[4.484093798438002]
341,Cs2YAuCl6,"{'symprec': 0.1, 'source': 'spglib', 'symbol': 'Fm-3m', 'number': 225, 'point_group': 'm-3m', 'crystal_system': 'cubic', 'hall': '-F 4 2 3'}",mp-1112919,0.0997356784999956,2.2507,"['Au', 'Cl', 'Cs', 'Y']",[4.315310554739565]
342,Rb2NaBiI6,"{'symprec': 0.1, 'source': 'spglib', 'symbol': 'Fm-3m', 'number': 225, 'point_group': 'm-3m', 'crystal_system': 'cubic', 'hall': '-F 4 2 3'}",mp-1114586,0.050243237500001,2.2536,"['Bi', 'I', 'Na', 'Rb']",[4.90990252500791]
343,Cs2NdCuBr6,"{'symprec': 0.1, 'source': 'spglib', 'symbol': 'Fm-3m', 'number': 225, 'point_group': 'm-3m', 'crystal_system': 'cubic', 'hall': '-F 4 2 3'}",mp-1113356,0.0249307452499993,2.2676,"['Br', 'Cs', 'Cu', 'Nd']",[4.196562267567401]
344,Cs2SmAuCl6,"{'symprec': 0.1, 'source': 'spglib', 'symbol': 'Fm-3m', 'number': 225, 'point_group': 'm-3m', 'crystal_system': 'cubic', 'hall': '-F 4 2 3'}",mp-1112920,0.0843605577499984,2.2743,"['Au', 'Cl', 'Cs', 'Sm']",[4.447860032253244]
345,Cs2RbAsI6,"{'symprec': 0.1, 'source': 'spglib', 'symbol': 'Fm-3m', 'number': 225, 'point_group': 'm-3m', 'crystal_system': 'cubic', 'hall': '-F 4 2 3'}",mp-1112131,0.0334693880000003,2.3035,"['As', 'Cs', 'I', 'Rb']",[4.788574639693489]
346,KRb2ScI6,"{'symprec': 0.1, 'source': 'spglib', 'symbol': 'Fm-3m', 'number': 225, 'point_group': 'm-3m', 'crystal_system': 'cubic', 'hall': '-F 4 2 3'}",mp-1110633,0.0151949094999999,2.3072,"['I', 'K', 'Rb', 'Sc']",[4.872501770314391]
347,Rb2PrCuBr6,"{'symprec': 0.1, 'source': 'spglib', 'symbol': 'Fm-3m', 'number': 225, 'point_group': 'm-3m', 'crystal_system': 'cubic', 'hall': '-F 4 2 3'}",mp-1113601,0.0753626867500014,2.3072,"['Br', 'Cu', 'Pr', 'Rb']",[4.384979303985396]
348,Cs2DyCuCl6,"{'symprec': 0.1, 'source': 'spglib', 'symbol': 'Fm-3m', 'number': 225, 'point_group': 'm-3m', 'crystal_system': 'cubic', 'hall': '-F 4 2 3'}",mp-1112958,0.0391387974166663,2.3142,"['Cl', 'Cs', 'Cu', 'Dy']","[4.049920567823712, 4.017368429621637]"
349,Rb2NdCuBr6,"{'symprec': 0.1, 'source': 'spglib', 'symbol': 'Fm-3m', 'number': 225, 'point_group': 'm-3m', 'crystal_system': 'cubic', 'hall': '-F 4 2 3'}",mp-1112460,0.070079955500002,2.3191,"['Br', 'Cu', 'Nd', 'Rb']",[4.384080894060105]
350,Rb2LiSbBr6,"{'symprec': 0.1, 'source': 'spglib', 'symbol': 'Fm-3m', 'number': 225, 'point_group': 'm-3m', 'crystal_system': 'cubic', 'hall': '-F 4 2 3'}",mp-1114575,0.0329312187500012,2.3242,"['Br', 'Li', 'Rb', 'Sb']",[4.464337450198979]
351,Cs2LiSbBr6,"{'symprec': 0.1, 'source': 'spglib', 'symbol': 'Fm-3m', 'number': 225, 'point_group': 'm-3m', 'crystal_system': 'cubic', 'hall': '-F 4 2 3'}",mp-1113007,0.022493481500001,2.3366,"['Br', 'Cs', 'Li', 'Sb']",[4.370105439785009]
352,Rb2YCuBr6,"{'symprec': 0.1, 'source': 'spglib', 'symbol': 'Fm-3m', 'number': 225, 'point_group': 'm-3m', 'crystal_system': 'cubic', 'hall': '-F 4 2 3'}",mp-1112413,0.0359041220000002,2.3529,"['Br', 'Cu', 'Rb', 'Y']",[4.38713863121784]
353,Cs2KInBr6,"{'symprec': 0.1, 'source': 'spglib', 'symbol': 'Fm-3m', 'number': 225, 'point_group': 'm-3m', 'crystal_system': 'cubic', 'hall': '-F 4 2 3'}",mp-1113046,0.0,2.3646,"['Br', 'Cs', 'In', 'K']",[4.295597338126155]
354,Cs2KScI6,"{'symprec': 0.1, 'source': 'spglib', 'symbol': 'Fm-3m', 'number': 225, 'point_group': 'm-3m', 'crystal_system': 'cubic', 'hall': '-F 4 2 3'}",mp-1112710,0.0,2.3657000000000004,"['Cs', 'I', 'K', 'Sc']",[4.470582804108712]
355,Cs2KTlCl6,"{'symprec': 0.1, 'source': 'spglib', 'symbol': 'Fm-3m', 'number': 225, 'point_group': 'm-3m', 'crystal_system': 'cubic', 'hall': '-F 4 2 3'}",mp-1113029,0.0065086290000002,2.3781,"['Cl', 'Cs', 'K', 'Tl']",[4.297954490140686]
356,Cs2YCuBr6,"{'symprec': 0.1, 'source': 'spglib', 'symbol': 'Fm-3m', 'number': 225, 'point_group': 'm-3m', 'crystal_system': 'cubic', 'hall': '-F 4 2 3'}",mp-1113326,0.0482610529999996,2.3867000000000003,"['Br', 'Cs', 'Cu', 'Y']",[4.235988240699962]
357,KRb2InBr6,"{'symprec': 0.1, 'source': 'spglib', 'symbol': 'Fm-3m', 'number': 225, 'point_group': 'm-3m', 'crystal_system': 'cubic', 'hall': '-F 4 2 3'}",mp-1114539,0.0351113677500003,2.3924,"['Br', 'In', 'K', 'Rb']",[4.783266883665459]
358,Cs2PrCuCl6,"{'symprec': 0.1, 'source': 'spglib', 'symbol': 'Fm-3m', 'number': 225, 'point_group': 'm-3m', 'crystal_system': 'cubic', 'hall': '-F 4 2 3'}",mp-1112617,0.0537259502291669,2.3993,"['Cl', 'Cs', 'Cu', 'Pr']",[4.022403007276617]
359,Rb2PrCuCl6,"{'symprec': 0.1, 'source': 'spglib', 'symbol': 'Fm-3m', 'number': 225, 'point_group': 'm-3m', 'crystal_system': 'cubic', 'hall': '-F 4 2 3'}",mp-1113382,0.0735839995000002,2.4089,"['Cl', 'Cu', 'Pr', 'Rb']",[4.213177270799385]
360,Cs2RbScI6,"{'symprec': 0.1, 'source': 'spglib', 'symbol': 'Fm-3m', 'number': 225, 'point_group': 'm-3m', 'crystal_system': 'cubic', 'hall': '-F 4 2 3'}",mp-1112117,0.0,2.4133,"['Cs', 'I', 'Rb', 'Sc']",[5.375565925161763]
361,Rb2ScTlI6,"{'symprec': 0.1, 'source': 'spglib', 'symbol': 'Fm-3m', 'number': 225, 'point_group': 'm-3m', 'crystal_system': 'cubic', 'hall': '-F 4 2 3'}",mp-1114514,0.0132911955000003,2.4154,"['I', 'Rb', 'Sc', 'Tl']",[5.040423528018105]
362,Cs2ScTlI6,"{'symprec': 0.1, 'source': 'spglib', 'symbol': 'Fm-3m', 'number': 225, 'point_group': 'm-3m', 'crystal_system': 'cubic', 'hall': '-F 4 2 3'}",mp-1112484,0.0,2.4279,"['Cs', 'I', 'Sc', 'Tl']",[4.535855511926194]
363,KRb2TlCl6,"{'symprec': 0.1, 'source': 'spglib', 'symbol': 'Fm-3m', 'number': 225, 'point_group': 'm-3m', 'crystal_system': 'cubic', 'hall': '-F 4 2 3'}",mp-1114555,0.0363011398333337,2.43,"['Cl', 'K', 'Rb', 'Tl']",[4.9528061722831405]
364,Rb2ScInBr6,"{'symprec': 0.1, 'source': 'spglib', 'symbol': 'Fm-3m', 'number': 225, 'point_group': 'm-3m', 'crystal_system': 'cubic', 'hall': '-F 4 2 3'}",mp-1114393,0.0313998464999998,2.4482,"['Br', 'In', 'Rb', 'Sc']",[]
365,Rb2NdCuCl6,"{'symprec': 0.1, 'source': 'spglib', 'symbol': 'Fm-3m', 'number': 225, 'point_group': 'm-3m', 'crystal_system': 'cubic', 'hall': '-F 4 2 3'}",mp-1112436,0.0660537152500011,2.4608000000000003,"['Cl', 'Cu', 'Nd', 'Rb']",[4.211668239892347]
366,Cs2TmCuCl6,"{'symprec': 0.1, 'source': 'spglib', 'symbol': 'Fm-3m', 'number': 225, 'point_group': 'm-3m', 'crystal_system': 'cubic', 'hall': '-F 4 2 3'}",mp-1112615,0.0399365562500011,2.4663000000000004,"['Cl', 'Cs', 'Cu', 'Tm']","[4.06664383235398, 4.025896525829679]"
367,Cs2KSbI6,"{'symprec': 0.1, 'source': 'spglib', 'symbol': 'Fm-3m', 'number': 225, 'point_group': 'm-3m', 'crystal_system': 'cubic', 'hall': '-F 4 2 3'}",mp-1112709,0.0452176745000012,2.4707,"['Cs', 'I', 'K', 'Sb']",[4.482940592470512]
368,Rb2LuCuCl6,"{'symprec': 0.1, 'source': 'spglib', 'symbol': 'Fm-3m', 'number': 225, 'point_group': 'm-3m', 'crystal_system': 'cubic', 'hall': '-F 4 2 3'}",mp-1111035,0.0336238965000008,2.4709000000000003,"['Cl', 'Cu', 'Lu', 'Rb']",[4.2135494852734965]
369,Rb2AlAgCl6,"{'symprec': 0.1, 'source': 'spglib', 'symbol': 'Fm-3m', 'number': 225, 'point_group': 'm-3m', 'crystal_system': 'cubic', 'hall': '-F 4 2 3'}",mp-1113867,0.0524616897499972,2.4798,"['Ag', 'Al', 'Cl', 'Rb']",[4.236695099483294]
370,Cs2ErCuCl6,"{'symprec': 0.1, 'source': 'spglib', 'symbol': 'Fm-3m', 'number': 225, 'point_group': 'm-3m', 'crystal_system': 'cubic', 'hall': '-F 4 2 3'}",mp-1112917,0.0398346943333334,2.4799999999999995,"['Cl', 'Cs', 'Cu', 'Er']",[4.061057017500557]
371,Cs2AlAgCl6,"{'symprec': 0.1, 'source': 'spglib', 'symbol': 'Fm-3m', 'number': 225, 'point_group': 'm-3m', 'crystal_system': 'cubic', 'hall': '-F 4 2 3'}",mp-1113621,0.0615589037500017,2.4879,"['Ag', 'Al', 'Cl', 'Cs']",[4.124960314353214]
372,Cs2RbTlCl6,"{'symprec': 0.1, 'source': 'spglib', 'symbol': 'Fm-3m', 'number': 225, 'point_group': 'm-3m', 'crystal_system': 'cubic', 'hall': '-F 4 2 3'}",mp-1112004,0.0176100380000003,2.491,"['Cl', 'Cs', 'Rb', 'Tl']",[6.0859657391003195]
373,CsRb2AsI6,"{'symprec': 0.1, 'source': 'spglib', 'symbol': 'Fm-3m', 'number': 225, 'point_group': 'm-3m', 'crystal_system': 'cubic', 'hall': '-F 4 2 3'}",mp-1113418,0.0897934149999999,2.5002000000000004,"['As', 'Cs', 'I', 'Rb']",[4.788574639693489]
374,Cs2RbInBr6,"{'symprec': 0.1, 'source': 'spglib', 'symbol': 'Fm-3m', 'number': 225, 'point_group': 'm-3m', 'crystal_system': 'cubic', 'hall': '-F 4 2 3'}",mp-996941,0.0,2.5058,"['Cs', 'Rb', 'In', 'Br']",[5.497419377588832]
375,Rb2TmCuCl6,"{'symprec': 0.1, 'source': 'spglib', 'symbol': 'Fm-3m', 'number': 225, 'point_group': 'm-3m', 'crystal_system': 'cubic', 'hall': '-F 4 2 3'}",mp-1112412,0.0329246490000012,2.506,"['Cl', 'Cu', 'Rb', 'Tm']","[4.209598952441366, 4.210416811305388]"
376,Cs2YAgI6,"{'symprec': 0.1, 'source': 'spglib', 'symbol': 'Fm-3m', 'number': 225, 'point_group': 'm-3m', 'crystal_system': 'cubic', 'hall': '-F 4 2 3'}",mp-1112931,0.0208655267500001,2.5216000000000003,"['Ag', 'Cs', 'I', 'Y']",[4.474517044389909]
377,Cs2ScInBr6,"{'symprec': 0.1, 'source': 'spglib', 'symbol': 'Fm-3m', 'number': 225, 'point_group': 'm-3m', 'crystal_system': 'cubic', 'hall': '-F 4 2 3'}",mp-1113520,0.0124598290000004,2.5285,"['Br', 'Cs', 'In', 'Sc']",[]
378,Cs2RbSbI6,"{'symprec': 0.1, 'source': 'spglib', 'symbol': 'Fm-3m', 'number': 225, 'point_group': 'm-3m', 'crystal_system': 'cubic', 'hall': '-F 4 2 3'}",mp-1112512,0.0555844155000007,2.5506,"['Cs', 'I', 'Rb', 'Sb']",[5.4574090885109205]
379,Rb2YAgI6,"{'symprec': 0.1, 'source': 'spglib', 'symbol': 'Fm-3m', 'number': 225, 'point_group': 'm-3m', 'crystal_system': 'cubic', 'hall': '-F 4 2 3'}",mp-1113701,0.0499496850000005,2.5563,"['Ag', 'I', 'Rb', 'Y']",[4.883634417055539]
380,Cs2YCuCl6,"{'symprec': 0.1, 'source': 'spglib', 'symbol': 'Fm-3m', 'number': 225, 'point_group': 'm-3m', 'crystal_system': 'cubic', 'hall': '-F 4 2 3'}",mp-1112909,0.0402206152500053,2.5659999999999994,"['Cl', 'Cs', 'Cu', 'Y']",[4.05580074816085]
381,Cs2NaSbBr6,"{'symprec': 0.1, 'source': 'spglib', 'symbol': 'Fm-3m', 'number': 225, 'point_group': 'm-3m', 'crystal_system': 'cubic', 'hall': '-F 4 2 3'}",mp-1112142,0.0130484010000011,2.567,"['Br', 'Cs', 'Na', 'Sb']",[4.189140039689297]
382,Rb2NaSbBr6,"{'symprec': 0.1, 'source': 'spglib', 'symbol': 'Fm-3m', 'number': 225, 'point_group': 'm-3m', 'crystal_system': 'cubic', 'hall': '-F 4 2 3'}",mp-1114595,0.0313619792500015,2.5714,"['Br', 'Na', 'Rb', 'Sb']",[4.3878346348624735]
383,Cs2NaAsBr6,"{'symprec': 0.1, 'source': 'spglib', 'symbol': 'Fm-3m', 'number': 225, 'point_group': 'm-3m', 'crystal_system': 'cubic', 'hall': '-F 4 2 3'}",mp-1112664,0.0,2.5774,"['As', 'Br', 'Cs', 'Na']",[4.3487815030937185]
384,Rb2ErCuCl6,"{'symprec': 0.1, 'source': 'spglib', 'symbol': 'Fm-3m', 'number': 225, 'point_group': 'm-3m', 'crystal_system': 'cubic', 'hall': '-F 4 2 3'}",mp-1113288,0.0379698635499994,2.5835,"['Cl', 'Cu', 'Er', 'Rb']",[4.208084080132347]
385,Rb2TbCuCl6,"{'symprec': 0.1, 'source': 'spglib', 'symbol': 'Fm-3m', 'number': 225, 'point_group': 'm-3m', 'crystal_system': 'cubic', 'hall': '-F 4 2 3'}",mp-1112416,0.0448176561099997,2.583600000000001,"['Cl', 'Cu', 'Rb', 'Tb']",[4.205767006970802]
386,Rb2NaAsBr6,"{'symprec': 0.1, 'source': 'spglib', 'symbol': 'Fm-3m', 'number': 225, 'point_group': 'm-3m', 'crystal_system': 'cubic', 'hall': '-F 4 2 3'}",mp-1114660,0.0089769005000004,2.5867,"['As', 'Br', 'Na', 'Rb']",[4.44941407198595]
387,Rb2SmCuCl6,"{'symprec': 0.1, 'source': 'spglib', 'symbol': 'Fm-3m', 'number': 225, 'point_group': 'm-3m', 'crystal_system': 'cubic', 'hall': '-F 4 2 3'}",mp-1112430,0.0500779195833374,2.5875,"['Cl', 'Cu', 'Rb', 'Sm']",[4.2076628760068715]
388,Rb2DyCuCl6,"{'symprec': 0.1, 'source': 'spglib', 'symbol': 'Fm-3m', 'number': 225, 'point_group': 'm-3m', 'crystal_system': 'cubic', 'hall': '-F 4 2 3'}",mp-1113403,0.0423848233699999,2.5968,"['Cl', 'Cu', 'Dy', 'Rb']","[4.206088445987283, 4.2197473236350715]"
389,Rb2TlGaCl6,"{'symprec': 0.1, 'source': 'spglib', 'symbol': 'Fm-3m', 'number': 225, 'point_group': 'm-3m', 'crystal_system': 'cubic', 'hall': '-F 4 2 3'}",mp-1114474,0.0751779302499988,2.5999000000000003,"['Cl', 'Ga', 'Rb', 'Tl']",[4.341017812815138]
390,Cs2SmCuCl6,"{'symprec': 0.1, 'source': 'spglib', 'symbol': 'Fm-3m', 'number': 225, 'point_group': 'm-3m', 'crystal_system': 'cubic', 'hall': '-F 4 2 3'}",mp-1112618,0.0327577754999994,2.6071000000000004,"['Cl', 'Cs', 'Cu', 'Sm']",[4.031522074820286]
391,Cs2TbCuCl6,"{'symprec': 0.1, 'source': 'spglib', 'symbol': 'Fm-3m', 'number': 225, 'point_group': 'm-3m', 'crystal_system': 'cubic', 'hall': '-F 4 2 3'}",mp-1113333,0.0298647117499997,2.6108,"['Cl', 'Cs', 'Cu', 'Tb']",[4.044931492515818]
392,Rb2TlInCl6,"{'symprec': 0.1, 'source': 'spglib', 'symbol': 'Fm-3m', 'number': 225, 'point_group': 'm-3m', 'crystal_system': 'cubic', 'hall': '-F 4 2 3'}",mp-989550,0.0,2.6353,"['Rb', 'Tl', 'In', 'Cl']",[4.888491439854148]
393,Rb2YCuCl6,"{'symprec': 0.1, 'source': 'spglib', 'symbol': 'Fm-3m', 'number': 225, 'point_group': 'm-3m', 'crystal_system': 'cubic', 'hall': '-F 4 2 3'}",mp-1113562,0.0420701166199997,2.6381999999999994,"['Cl', 'Cu', 'Rb', 'Y']",[4.206951138678729]
394,Rb2ScInCl6,"{'symprec': 0.1, 'source': 'spglib', 'symbol': 'Fm-3m', 'number': 225, 'point_group': 'm-3m', 'crystal_system': 'cubic', 'hall': '-F 4 2 3'}",mp-1114650,0.0,2.6637,"['Cl', 'In', 'Rb', 'Sc']",[]
395,Cs2TlGaCl6,"{'symprec': 0.1, 'source': 'spglib', 'symbol': 'Fm-3m', 'number': 225, 'point_group': 'm-3m', 'crystal_system': 'cubic', 'hall': '-F 4 2 3'}",mp-1112002,0.0533273534999989,2.6752,"['Cl', 'Cs', 'Ga', 'Tl']",[4.030554089572161]
396,Rb2YInI6,"{'symprec': 0.1, 'source': 'spglib', 'symbol': 'Fm-3m', 'number': 225, 'point_group': 'm-3m', 'crystal_system': 'cubic', 'hall': '-F 4 2 3'}",mp-1114529,0.0432396795,2.6766,"['I', 'In', 'Rb', 'Y']",[]
397,CsRb2InBr6,"{'symprec': 0.1, 'source': 'spglib', 'symbol': 'Fm-3m', 'number': 225, 'point_group': 'm-3m', 'crystal_system': 'cubic', 'hall': '-F 4 2 3'}",mp-1113394,0.0552571065000018,2.6797,"['Br', 'Cs', 'In', 'Rb']",[5.497419377588832]
398,Cs2KBiI6,"{'symprec': 0.1, 'source': 'spglib', 'symbol': 'Fm-3m', 'number': 225, 'point_group': 'm-3m', 'crystal_system': 'cubic', 'hall': '-F 4 2 3'}",mp-1113055,0.040637148500001,2.6824,"['Bi', 'Cs', 'I', 'K']",[5.001765056044631]
399,Cs2TlInCl6,"{'symprec': 0.1, 'source': 'spglib', 'symbol': 'Fm-3m', 'number': 225, 'point_group': 'm-3m', 'crystal_system': 'cubic', 'hall': '-F 4 2 3'}",mp-1112490,0.0,2.7088,"['Cl', 'Cs', 'In', 'Tl']",[4.267730985161617]
400,Cs2YInI6,"{'symprec': 0.1, 'source': 'spglib', 'symbol': 'Fm-3m', 'number': 225, 'point_group': 'm-3m', 'crystal_system': 'cubic', 'hall': '-F 4 2 3'}",mp-1112795,0.0008705474999994,2.7342,"['Cs', 'I', 'In', 'Y']",[]
401,Cs2NdAgI6,"{'symprec': 0.1, 'source': 'spglib', 'symbol': 'Fm-3m', 'number': 225, 'point_group': 'm-3m', 'crystal_system': 'cubic', 'hall': '-F 4 2 3'}",mp-1113461,0.0056701402499999,2.7392000000000003,"['Ag', 'Cs', 'I', 'Nd']",[4.547881360467123]
402,Rb2NdAgI6,"{'symprec': 0.1, 'source': 'spglib', 'symbol': 'Fm-3m', 'number': 225, 'point_group': 'm-3m', 'crystal_system': 'cubic', 'hall': '-F 4 2 3'}",mp-1113720,0.0615001874999991,2.7663,"['Ag', 'I', 'Nd', 'Rb']",[5.069177637887106]
403,Cs2LiGdCl6,"{'symprec': 0.1, 'source': 'spglib', 'symbol': 'Fm-3m', 'number': 225, 'point_group': 'm-3m', 'crystal_system': 'cubic', 'hall': '-F 4 2 3'}",mp-1112624,0.0006076935000018,2.7824,"['Cl', 'Cs', 'Gd', 'Li']",[4.043714059697319]
404,Cs2PrAgI6,"{'symprec': 0.1, 'source': 'spglib', 'symbol': 'Fm-3m', 'number': 225, 'point_group': 'm-3m', 'crystal_system': 'cubic', 'hall': '-F 4 2 3'}",mp-1112942,0.00660767325,2.7826,"['Ag', 'Cs', 'I', 'Pr']",[4.555686679749695]
405,Cs2LiInCl6,"{'symprec': 0.1, 'source': 'spglib', 'symbol': 'Fm-3m', 'number': 225, 'point_group': 'm-3m', 'crystal_system': 'cubic', 'hall': '-F 4 2 3'}",mp-1113017,0.0133167270000025,2.7831,"['Cl', 'Cs', 'In', 'Li']",[4.133370208769357]
406,Cs2RbBiI6,"{'symprec': 0.1, 'source': 'spglib', 'symbol': 'Fm-3m', 'number': 225, 'point_group': 'm-3m', 'crystal_system': 'cubic', 'hall': '-F 4 2 3'}",mp-1112161,0.0510174045000004,2.801,"['Bi', 'Cs', 'I', 'Rb']",[8.533742140588487]
407,Rb2PrAgI6,"{'symprec': 0.1, 'source': 'spglib', 'symbol': 'Fm-3m', 'number': 225, 'point_group': 'm-3m', 'crystal_system': 'cubic', 'hall': '-F 4 2 3'}",mp-1113721,0.0666967897500003,2.8103,"['Ag', 'I', 'Pr', 'Rb']",[5.087646758973689]
408,Rb2LiGdCl6,"{'symprec': 0.1, 'source': 'spglib', 'symbol': 'Fm-3m', 'number': 225, 'point_group': 'm-3m', 'crystal_system': 'cubic', 'hall': '-F 4 2 3'}",mp-1114418,0.0112163900000004,2.8195,"['Cl', 'Gd', 'Li', 'Rb']",[4.205756128001861]
409,Rb2LiInCl6,"{'symprec': 0.1, 'source': 'spglib', 'symbol': 'Fm-3m', 'number': 225, 'point_group': 'm-3m', 'crystal_system': 'cubic', 'hall': '-F 4 2 3'}",mp-989583,0.0,2.8293,"['Rb', 'Li', 'In', 'Cl']",[4.2416615067267]
410,Cs2ScInCl6,"{'symprec': 0.1, 'source': 'spglib', 'symbol': 'Fm-3m', 'number': 225, 'point_group': 'm-3m', 'crystal_system': 'cubic', 'hall': '-F 4 2 3'}",mp-1113067,0.0056836113125005,2.838,"['Cl', 'Cs', 'In', 'Sc']",[]
411,Cs2NaGaCl6,"{'symprec': 0.1, 'source': 'spglib', 'symbol': 'Fm-3m', 'number': 225, 'point_group': 'm-3m', 'crystal_system': 'cubic', 'hall': '-F 4 2 3'}",mp-1112988,0.0534598494999989,2.8457,"['Cl', 'Cs', 'Ga', 'Na']",[4.10647929267005]