,pretty_formula,spacegroup,material_id,e_above_hull,band_gap,elements,tolerance
246,Rb2NaMoI6,"{'symprec': 0.1, 'source': 'spglib', 'symbol': 'Fm-3m', 'number': 225, 'point_group': 'm-3m', 'crystal_system': 'cubic', 'hall': '-F 4 2 3'}",mp-1114447,0.0974806145833344,1.4146,"['I', 'Mo', 'Na', 'Rb']",[4.67087476433462]
247,Rb2AgBiI6,"{'symprec': 0.1, 'source': 'spglib', 'symbol': 'Fm-3m', 'number': 225, 'point_group': 'm-3m', 'crystal_system': 'cubic', 'hall': '-F 4 2 3'}",mp-1113745,0.0488344461250016,1.4200000000000002,"['Ag', 'Bi', 'I', 'Rb']",[5.202263838972561]
248,Cs2AgBiI6,"{'symprec': 0.1, 'source': 'spglib', 'symbol': 'Fm-3m', 'number': 225, 'point_group': 'm-3m', 'crystal_system': 'cubic', 'hall': '-F 4 2 3'}",mp-1113574,0.029289354312501,1.425,"['Ag', 'Bi', 'Cs', 'I']",[4.605178622092895]
249,Rb2AlInI6,"{'symprec': 0.1, 'source': 'spglib', 'symbol': 'Fm-3m', 'number': 225, 'point_group': 'm-3m', 'crystal_system': 'cubic', 'hall': '-F 4 2 3'}",mp-1114521,0.0774250985,1.4440000000000002,"['Al', 'I', 'In', 'Rb']",[]
250,Cs2AlInI6,"{'symprec': 0.1, 'source': 'spglib', 'symbol': 'Fm-3m', 'number': 225, 'point_group': 'm-3m', 'crystal_system': 'cubic', 'hall': '-F 4 2 3'}",mp-1112896,0.0432952184999999,1.4695,"['Al', 'Cs', 'I', 'In']",[]
251,Cs2NaMoBr6,"{'symprec': 0.1, 'source': 'spglib', 'symbol': 'Fm-3m', 'number': 225, 'point_group': 'm-3m', 'crystal_system': 'cubic', 'hall': '-F 4 2 3'}",mp-1112009,0.028755533,1.4759000000000002,"['Br', 'Cs', 'Mo', 'Na']",[4.227772745359026]
252,Cs2AlAgBr6,"{'symprec': 0.1, 'source': 'spglib', 'symbol': 'Fm-3m', 'number': 225, 'point_group': 'm-3m', 'crystal_system': 'cubic', 'hall': '-F 4 2 3'}",mp-1113577,0.0780743886250001,1.4771,"['Ag', 'Al', 'Br', 'Cs']",[4.316194463491987]
253,Rb2NaMoBr6,"{'symprec': 0.1, 'source': 'spglib', 'symbol': 'Fm-3m', 'number': 225, 'point_group': 'm-3m', 'crystal_system': 'cubic', 'hall': '-F 4 2 3'}",mp-1114445,0.0454517584583324,1.4893999999999998,"['Br', 'Mo', 'Na', 'Rb']",[4.384795348393759]
254,Rb2AlAgBr6,"{'symprec': 0.1, 'source': 'spglib', 'symbol': 'Fm-3m', 'number': 225, 'point_group': 'm-3m', 'crystal_system': 'cubic', 'hall': '-F 4 2 3'}",mp-1113743,0.0775170589999985,1.4966,"['Ag', 'Al', 'Br', 'Rb']",[4.427929248622067]
255,Cs2RbTlBr6,"{'symprec': 0.1, 'source': 'spglib', 'symbol': 'Fm-3m', 'number': 225, 'point_group': 'm-3m', 'crystal_system': 'cubic', 'hall': '-F 4 2 3'}",mp-1112116,0.0305719872499996,1.5141,"['Br', 'Cs', 'Rb', 'Tl']",[6.2093504614476105]
256,Cs2KMoI6,"{'symprec': 0.1, 'source': 'spglib', 'symbol': 'Fm-3m', 'number': 225, 'point_group': 'm-3m', 'crystal_system': 'cubic', 'hall': '-F 4 2 3'}",mp-1113040,0.0778515812083342,1.5167000000000002,"['Cs', 'I', 'K', 'Mo']",[4.439653498187949]
257,Cs2LiTlCl6,"{'symprec': 0.1, 'source': 'spglib', 'symbol': 'Fm-3m', 'number': 225, 'point_group': 'm-3m', 'crystal_system': 'cubic', 'hall': '-F 4 2 3'}",mp-1112999,0.0174196030000017,1.5311,"['Cl', 'Cs', 'Li', 'Tl']",[4.070451793229461]
258,Rb2LiMoCl6,"{'symprec': 0.1, 'source': 'spglib', 'symbol': 'Fm-3m', 'number': 225, 'point_group': 'm-3m', 'crystal_system': 'cubic', 'hall': '-F 4 2 3'}",mp-1114423,0.0,1.5319,"['Cl', 'Li', 'Mo', 'Rb']",[4.330363657156111]
259,Rb2AgAsCl6,"{'symprec': 0.1, 'source': 'spglib', 'symbol': 'Fm-3m', 'number': 225, 'point_group': 'm-3m', 'crystal_system': 'cubic', 'hall': '-F 4 2 3'}",mp-1113376,0.0,1.5581,"['Ag', 'As', 'Cl', 'Rb']",[4.212319376242059]
260,Rb2LiTlCl6,"{'symprec': 0.1, 'source': 'spglib', 'symbol': 'Fm-3m', 'number': 225, 'point_group': 'm-3m', 'crystal_system': 'cubic', 'hall': '-F 4 2 3'}",mp-989579,0.0155915151666672,1.5623,"['Rb', 'Li', 'Tl', 'Cl']",[4.210789760533055]
261,Cs2LiInBr6,"{'symprec': 0.1, 'source': 'spglib', 'symbol': 'Fm-3m', 'number': 225, 'point_group': 'm-3m', 'crystal_system': 'cubic', 'hall': '-F 4 2 3'}",mp-989405,0.0,1.5789,"['Cs', 'Li', 'In', 'Br']",[4.325741149785323]
262,Cs2LiMoCl6,"{'symprec': 0.1, 'source': 'spglib', 'symbol': 'Fm-3m', 'number': 225, 'point_group': 'm-3m', 'crystal_system': 'cubic', 'hall': '-F 4 2 3'}",mp-1113012,0.0319260004583332,1.5922,"['Cl', 'Cs', 'Li', 'Mo']",[4.2594099915009505]
263,Cs2KCrCl6,"{'symprec': 0.1, 'source': 'spglib', 'symbol': 'Fm-3m', 'number': 225, 'point_group': 'm-3m', 'crystal_system': 'cubic', 'hall': '-F 4 2 3'}",mp-1205683,0.0,1.5968,"['Cl', 'Cr', 'Cs', 'K']",[4.0121490684921195]
264,Rb2AgBiBr6,"{'symprec': 0.1, 'source': 'spglib', 'symbol': 'Fm-3m', 'number': 225, 'point_group': 'm-3m', 'crystal_system': 'cubic', 'hall': '-F 4 2 3'}",mp-1113805,0.0241168733749996,1.5972000000000002,"['Ag', 'Bi', 'Br', 'Rb']",[4.981746009471402]
265,Cs2AgAsCl6,"{'symprec': 0.1, 'source': 'spglib', 'symbol': 'Fm-3m', 'number': 225, 'point_group': 'm-3m', 'crystal_system': 'cubic', 'hall': '-F 4 2 3'}",mp-1113543,0.00833102675,1.606,"['Ag', 'As', 'Cl', 'Cs']",[4.074887868952533]
266,Cs2NaGaBr6,"{'symprec': 0.1, 'source': 'spglib', 'symbol': 'Fm-3m', 'number': 225, 'point_group': 'm-3m', 'crystal_system': 'cubic', 'hall': '-F 4 2 3'}",mp-1110642,0.0752740187499991,1.6198,"['Br', 'Cs', 'Ga', 'Na']",[4.295102588230495]
267,Cs2AgBiBr6,"{'symprec': 0.1, 'source': 'spglib', 'symbol': 'Fm-3m', 'number': 225, 'point_group': 'm-3m', 'crystal_system': 'cubic', 'hall': '-F 4 2 3'}",mp-1078250,0.0010797496875003,1.6215,"['Ag', 'Bi', 'Br', 'Cs']",[4.3846607925917365]
268,Rb2NaMoCl6,"{'symprec': 0.1, 'source': 'spglib', 'symbol': 'Fm-3m', 'number': 225, 'point_group': 'm-3m', 'crystal_system': 'cubic', 'hall': '-F 4 2 3'}",mp-1114446,0.0,1.6325999999999998,"['Cl', 'Mo', 'Na', 'Rb']",[4.20599571343072]
269,Rb2NaGaBr6,"{'symprec': 0.1, 'source': 'spglib', 'symbol': 'Fm-3m', 'number': 225, 'point_group': 'm-3m', 'crystal_system': 'cubic', 'hall': '-F 4 2 3'}",mp-1110631,0.0839249945000006,1.6327,"['Br', 'Ga', 'Na', 'Rb']",[4.415130487526707]
270,Rb2AgSbCl6,"{'symprec': 0.1, 'source': 'spglib', 'symbol': 'Fm-3m', 'number': 225, 'point_group': 'm-3m', 'crystal_system': 'cubic', 'hall': '-F 4 2 3'}",mp-1113695,0.0,1.642,"['Ag', 'Cl', 'Rb', 'Sb']",[4.28117647172389]
271,Cs2KMoBr6,"{'symprec': 0.1, 'source': 'spglib', 'symbol': 'Fm-3m', 'number': 225, 'point_group': 'm-3m', 'crystal_system': 'cubic', 'hall': '-F 4 2 3'}",mp-1113043,0.0333229743541658,1.6471,"['Br', 'Cs', 'K', 'Mo']",[4.193703313427411]
272,Rb2LiRhCl6,"{'symprec': 0.1, 'source': 'spglib', 'symbol': 'P-3m1', 'number': 164, 'point_group': '-3m', 'crystal_system': 'trigonal', 'hall': '-P 3 2""'}",mp-1206187,0.0,1.6499,"['Cl', 'Li', 'Rb', 'Rh']",[4.359613758250662]
273,Rb2TlBiBr6,"{'symprec': 0.1, 'source': 'spglib', 'symbol': 'Fm-3m', 'number': 225, 'point_group': 'm-3m', 'crystal_system': 'cubic', 'hall': '-F 4 2 3'}",mp-1114472,0.0447909923749985,1.6667999999999998,"['Bi', 'Br', 'Rb', 'Tl']",[6.654773683126947]
274,Cs2NaMoCl6,"{'symprec': 0.1, 'source': 'spglib', 'symbol': 'Fm-3m', 'number': 225, 'point_group': 'm-3m', 'crystal_system': 'cubic', 'hall': '-F 4 2 3'}",mp-1112538,0.0039994622083323,1.6672999999999998,"['Cl', 'Cs', 'Mo', 'Na']",[4.0489731103959885]
275,Rb2TlGaBr6,"{'symprec': 0.1, 'source': 'spglib', 'symbol': 'Fm-3m', 'number': 225, 'point_group': 'm-3m', 'crystal_system': 'cubic', 'hall': '-F 4 2 3'}",mp-1114606,0.0896496834999989,1.6747,"['Br', 'Ga', 'Rb', 'Tl']",[4.4965605670247015]
276,Cs2AgSbCl6,"{'symprec': 0.1, 'source': 'spglib', 'symbol': 'Fm-3m', 'number': 225, 'point_group': 'm-3m', 'crystal_system': 'cubic', 'hall': '-F 4 2 3'}",mp-1112940,0.0,1.6771,"['Ag', 'Cl', 'Cs', 'Sb']",[4.015095595461377]
277,Cs2KMoCl6,"{'symprec': 0.1, 'source': 'spglib', 'symbol': 'Fm-3m', 'number': 225, 'point_group': 'm-3m', 'crystal_system': 'cubic', 'hall': '-F 4 2 3'}",mp-1113042,0.0056126712083326,1.6914000000000002,"['Cl', 'Cs', 'K', 'Mo']",[4.039984447952074]
278,Rb2InBiCl6,"{'symprec': 0.1, 'source': 'spglib', 'symbol': 'Fm-3m', 'number': 225, 'point_group': 'm-3m', 'crystal_system': 'cubic', 'hall': '-F 4 2 3'}",mp-1114523,0.0,1.7024,"['Bi', 'Cl', 'In', 'Rb']",[]
279,CsRb2TlBr6,"{'symprec': 0.1, 'source': 'spglib', 'symbol': 'Fm-3m', 'number': 225, 'point_group': 'm-3m', 'crystal_system': 'cubic', 'hall': '-F 4 2 3'}",mp-1113347,0.0950253692499991,1.7062,"['Br', 'Cs', 'Rb', 'Tl']",[6.2093504614476105]
280,Cs2TlBiBr6,"{'symprec': 0.1, 'source': 'spglib', 'symbol': 'Fm-3m', 'number': 225, 'point_group': 'm-3m', 'crystal_system': 'cubic', 'hall': '-F 4 2 3'}",mp-1112498,0.0069022185000013,1.7292999999999998,"['Bi', 'Br', 'Cs', 'Tl']",[5.126438519995346]
281,Cs2KAlI6,"{'symprec': 0.1, 'source': 'spglib', 'symbol': 'Fm-3m', 'number': 225, 'point_group': 'm-3m', 'crystal_system': 'cubic', 'hall': '-F 4 2 3'}",mp-1113057,0.0431809715000004,1.7456,"['Al', 'Cs', 'I', 'K']",[4.485135454602748]
282,KRb2AlI6,"{'symprec': 0.1, 'source': 'spglib', 'symbol': 'Fm-3m', 'number': 225, 'point_group': 'm-3m', 'crystal_system': 'cubic', 'hall': '-F 4 2 3'}",mp-1114509,0.0794438054999999,1.7553999999999998,"['Al', 'I', 'K', 'Rb']",[4.661648408563645]
283,Cs2TlGaBr6,"{'symprec': 0.1, 'source': 'spglib', 'symbol': 'Fm-3m', 'number': 225, 'point_group': 'm-3m', 'crystal_system': 'cubic', 'hall': '-F 4 2 3'}",mp-1112492,0.0694387027499985,1.7562,"['Br', 'Cs', 'Ga', 'Tl']",[4.1860968437817245]
284,Cs2InBiCl6,"{'symprec': 0.1, 'source': 'spglib', 'symbol': 'Fm-3m', 'number': 225, 'point_group': 'm-3m', 'crystal_system': 'cubic', 'hall': '-F 4 2 3'}",mp-1112889,0.0242359173333337,1.7793,"['Bi', 'Cl', 'Cs', 'In']",[]
285,Cs2YCuI6,"{'symprec': 0.1, 'source': 'spglib', 'symbol': 'Fm-3m', 'number': 225, 'point_group': 'm-3m', 'crystal_system': 'cubic', 'hall': '-F 4 2 3'}",mp-1113323,0.0668256502500002,1.7819000000000005,"['Cs', 'Cu', 'I', 'Y']",[4.524288228762542]
286,Rb2YCuI6,"{'symprec': 0.1, 'source': 'spglib', 'symbol': 'Fm-3m', 'number': 225, 'point_group': 'm-3m', 'crystal_system': 'cubic', 'hall': '-F 4 2 3'}",mp-1112410,0.0826537350000005,1.8315,"['Cu', 'I', 'Rb', 'Y']",[4.675438619280419]
287,Cs2AlTlI6,"{'symprec': 0.1, 'source': 'spglib', 'symbol': 'Fm-3m', 'number': 225, 'point_group': 'm-3m', 'crystal_system': 'cubic', 'hall': '-F 4 2 3'}",mp-1112111,0.0594919765000003,1.8437,"['Al', 'Cs', 'I', 'Tl']",[4.448936920653361]
288,Rb2AlTlI6,"{'symprec': 0.1, 'source': 'spglib', 'symbol': 'Fm-3m', 'number': 225, 'point_group': 'm-3m', 'crystal_system': 'cubic', 'hall': '-F 4 2 3'}",mp-1114469,0.0954968754999998,1.8525,"['Al', 'I', 'Rb', 'Tl']",[4.665017342309471]
289,Rb2InGaCl6,"{'symprec': 0.1, 'source': 'spglib', 'symbol': 'Fm-3m', 'number': 225, 'point_group': 'm-3m', 'crystal_system': 'cubic', 'hall': '-F 4 2 3'}",mp-1114389,0.055139347562501,1.8529,"['Cl', 'Ga', 'In', 'Rb']",[]
290,Cs2YAuBr6,"{'symprec': 0.1, 'source': 'spglib', 'symbol': 'Fm-3m', 'number': 225, 'point_group': 'm-3m', 'crystal_system': 'cubic', 'hall': '-F 4 2 3'}",mp-1112918,0.095651828749999,1.8854,"['Au', 'Br', 'Cs', 'Y']",[4.4503963614791395]
291,Cs2RbAlI6,"{'symprec': 0.1, 'source': 'spglib', 'symbol': 'Fm-3m', 'number': 225, 'point_group': 'm-3m', 'crystal_system': 'cubic', 'hall': '-F 4 2 3'}",mp-1112133,0.0512680874999995,1.8888,"['Al', 'Cs', 'I', 'Rb']",[4.712621524516132]
292,Rb2YAuBr6,"{'symprec': 0.1, 'source': 'spglib', 'symbol': 'Fm-3m', 'number': 225, 'point_group': 'm-3m', 'crystal_system': 'cubic', 'hall': '-F 4 2 3'}",mp-1113602,0.0880219442499994,1.9119,"['Au', 'Br', 'Rb', 'Y']",[5.124783412007066]
293,Rb2LiSbI6,"{'symprec': 0.1, 'source': 'spglib', 'symbol': 'Fm-3m', 'number': 225, 'point_group': 'm-3m', 'crystal_system': 'cubic', 'hall': '-F 4 2 3'}",mp-1114577,0.0522640680000008,1.9173,"['I', 'Li', 'Rb', 'Sb']",[4.78012692388319]
294,Cs2LiSbI6,"{'symprec': 0.1, 'source': 'spglib', 'symbol': 'Fm-3m', 'number': 225, 'point_group': 'm-3m', 'crystal_system': 'cubic', 'hall': '-F 4 2 3'}",mp-1112673,0.0355508780000008,1.9191,"['Cs', 'I', 'Li', 'Sb']",[4.68589491346922]
295,Rb2ScCuCl6,"{'symprec': 0.1, 'source': 'spglib', 'symbol': 'Fm-3m', 'number': 225, 'point_group': 'm-3m', 'crystal_system': 'cubic', 'hall': '-F 4 2 3'}",mp-1113560,0.0065124698999996,1.9245,"['Cl', 'Cu', 'Rb', 'Sc']",[4.270810260508143]
296,Cs2NaTlCl6,"{'symprec': 0.1, 'source': 'spglib', 'symbol': 'Fm-3m', 'number': 225, 'point_group': 'm-3m', 'crystal_system': 'cubic', 'hall': '-F 4 2 3'}",mp-1112527,0.0,1.9339,"['Cl', 'Cs', 'Na', 'Tl']",[4.021507554196159]
297,Cs2ScCuCl6,"{'symprec': 0.1, 'source': 'spglib', 'symbol': 'Fm-3m', 'number': 225, 'point_group': 'm-3m', 'crystal_system': 'cubic', 'hall': '-F 4 2 3'}",mp-1113337,0.0522492567499996,1.9632,"['Cl', 'Cs', 'Cu', 'Sc']",[4.178362140045204]
298,Rb2NaTlCl6,"{'symprec': 0.1, 'source': 'spglib', 'symbol': 'Fm-3m', 'number': 225, 'point_group': 'm-3m', 'crystal_system': 'cubic', 'hall': '-F 4 2 3'}",mp-989563,0.0082396981666668,1.9723,"['Rb', 'Na', 'Tl', 'Cl']",[4.3097065367841765]
299,Rb2TlSbCl6,"{'symprec': 0.1, 'source': 'spglib', 'symbol': 'Fm-3m', 'number': 225, 'point_group': 'm-3m', 'crystal_system': 'cubic', 'hall': '-F 4 2 3'}",mp-1114609,0.0,1.9851,"['Cl', 'Rb', 'Sb', 'Tl']",[4.725870758781347]
300,Cs2NaInBr6,"{'symprec': 0.1, 'source': 'spglib', 'symbol': 'Fm-3m', 'number': 225, 'point_group': 'm-3m', 'crystal_system': 'cubic', 'hall': '-F 4 2 3'}",mp-996943,0.0,1.9899,"['Br', 'Cs', 'In', 'Na']",[4.178281870143371]
301,Cs2NdCuI6,"{'symprec': 0.1, 'source': 'spglib', 'symbol': 'Fm-3m', 'number': 225, 'point_group': 'm-3m', 'crystal_system': 'cubic', 'hall': '-F 4 2 3'}",mp-1112912,0.0490634977500001,1.9946,"['Cs', 'Cu', 'I', 'Nd']",[4.472422514235815]
302,Rb2TlAsCl6,"{'symprec': 0.1, 'source': 'spglib', 'symbol': 'Fm-3m', 'number': 225, 'point_group': 'm-3m', 'crystal_system': 'cubic', 'hall': '-F 4 2 3'}",mp-1114470,0.0090604302500003,1.9956,"['As', 'Cl', 'Rb', 'Tl']",[4.277556259914442]
303,Cs2InGaCl6,"{'symprec': 0.1, 'source': 'spglib', 'symbol': 'Fm-3m', 'number': 225, 'point_group': 'm-3m', 'crystal_system': 'cubic', 'hall': '-F 4 2 3'}",mp-1113201,0.0405639722500006,2.0109,"['Cl', 'Cs', 'Ga', 'In']",[]
304,Cs2TlSbCl6,"{'symprec': 0.1, 'source': 'spglib', 'symbol': 'Fm-3m', 'number': 225, 'point_group': 'm-3m', 'crystal_system': 'cubic', 'hall': '-F 4 2 3'}",mp-1112003,0.0085075050000011,2.0339,"['Cl', 'Cs', 'Sb', 'Tl']",[4.19190063099841]
305,Rb2LiBiI6,"{'symprec': 0.1, 'source': 'spglib', 'symbol': 'Fm-3m', 'number': 225, 'point_group': 'm-3m', 'crystal_system': 'cubic', 'hall': '-F 4 2 3'}",mp-1114563,0.0513575600000009,2.0367,"['Bi', 'I', 'Li', 'Rb']",[4.661238307013717]
306,Rb2NdCuI6,"{'symprec': 0.1, 'source': 'spglib', 'symbol': 'Fm-3m', 'number': 225, 'point_group': 'm-3m', 'crystal_system': 'cubic', 'hall': '-F 4 2 3'}",mp-1113600,0.0950329039999999,2.0401,"['Cu', 'I', 'Nd', 'Rb']",[4.659941140728519]
307,Cs2LiBiI6,"{'symprec': 0.1, 'source': 'spglib', 'symbol': 'Fm-3m', 'number': 225, 'point_group': 'm-3m', 'crystal_system': 'cubic', 'hall': '-F 4 2 3'}",mp-1113021,0.0314271000000005,2.0413,"['Bi', 'Cs', 'I', 'Li']",[4.457790494959156]
308,Rb2ScInI6,"{'symprec': 0.1, 'source': 'spglib', 'symbol': 'Fm-3m', 'number': 225, 'point_group': 'm-3m', 'crystal_system': 'cubic', 'hall': '-F 4 2 3'}",mp-1114526,0.0070584524999994,2.0620000000000003,"['I', 'In', 'Rb', 'Sc']",[]
309,Cs2TlAsCl6,"{'symprec': 0.1, 'source': 'spglib', 'symbol': 'Fm-3m', 'number': 225, 'point_group': 'm-3m', 'crystal_system': 'cubic', 'hall': '-F 4 2 3'}",mp-1112502,0.0135054500000011,2.076,"['As', 'Cl', 'Cs', 'Tl']",[4.014458975801913]
310,Rb2ScAuCl6,"{'symprec': 0.1, 'source': 'spglib', 'symbol': 'Fm-3m', 'number': 225, 'point_group': 'm-3m', 'crystal_system': 'cubic', 'hall': '-F 4 2 3'}",mp-1113638,0.071563768366667,2.0871000000000004,"['Au', 'Cl', 'Rb', 'Sc']",[4.474778568849509]
311,Rb2AgBiCl6,"{'symprec': 0.1, 'source': 'spglib', 'symbol': 'Fm-3m', 'number': 225, 'point_group': 'm-3m', 'crystal_system': 'cubic', 'hall': '-F 4 2 3'}",mp-1113806,0.0,2.088,"['Ag', 'Bi', 'Cl', 'Rb']",[4.843922366033178]
312,Rb2PrCuI6,"{'symprec': 0.1, 'source': 'spglib', 'symbol': 'Fm-3m', 'number': 225, 'point_group': 'm-3m', 'crystal_system': 'cubic', 'hall': '-F 4 2 3'}",mp-1112437,0.0998620902500002,2.0897,"['Cu', 'I', 'Pr', 'Rb']",[4.6598625570830166]
313,Cs2PrCuI6,"{'symprec': 0.1, 'source': 'spglib', 'symbol': 'Fm-3m', 'number': 225, 'point_group': 'm-3m', 'crystal_system': 'cubic', 'hall': '-F 4 2 3'}",mp-1112913,0.0493200717499999,2.0962,"['Cs', 'Cu', 'I', 'Pr']",[4.46908829356025]
314,Cs2NaSbI6,"{'symprec': 0.1, 'source': 'spglib', 'symbol': 'Fm-3m', 'number': 225, 'point_group': 'm-3m', 'crystal_system': 'cubic', 'hall': '-F 4 2 3'}",mp-1112140,0.0298570985000012,2.0974000000000004,"['Cs', 'I', 'Na', 'Sb']",[4.46172654994385]
315,Rb2NaSbI6,"{'symprec': 0.1, 'source': 'spglib', 'symbol': 'Fm-3m', 'number': 225, 'point_group': 'm-3m', 'crystal_system': 'cubic', 'hall': '-F 4 2 3'}",mp-1114596,0.0521110475000008,2.101,"['I', 'Na', 'Rb', 'Sb']",[4.660421145117026]
316,Rb2LuAuCl6,"{'symprec': 0.1, 'source': 'spglib', 'symbol': 'Fm-3m', 'number': 225, 'point_group': 'm-3m', 'crystal_system': 'cubic', 'hall': '-F 4 2 3'}",mp-1113494,0.0971230942500023,2.1098000000000003,"['Au', 'Cl', 'Lu', 'Rb']",[4.830129720148179]
317,Cs2AgBiCl6,"{'symprec': 0.1, 'source': 'spglib', 'symbol': 'Fm-3m', 'number': 225, 'point_group': 'm-3m', 'crystal_system': 'cubic', 'hall': '-F 4 2 3'}",mp-1078258,0.0,2.1138,"['Ag', 'Bi', 'Cl', 'Cs']",[4.246837149153512]
318,Rb2AlInBr6,"{'symprec': 0.1, 'source': 'spglib', 'symbol': 'Fm-3m', 'number': 225, 'point_group': 'm-3m', 'crystal_system': 'cubic', 'hall': '-F 4 2 3'}",mp-1114520,0.0695736732499998,2.12,"['Al', 'Br', 'In', 'Rb']",[]
319,Rb2GdAgCl6,"{'symprec': 0.1, 'source': 'spglib', 'symbol': 'Fm-3m', 'number': 225, 'point_group': 'm-3m', 'crystal_system': 'cubic', 'hall': '-F 4 2 3'}",mp-1111486,0.0129470199999994,2.1229,"['Ag', 'Cl', 'Gd', 'Rb']",[4.585628673713421]
320,Cs2ErAuCl6,"{'symprec': 0.1, 'source': 'spglib', 'symbol': 'Fm-3m', 'number': 225, 'point_group': 'm-3m', 'crystal_system': 'cubic', 'hall': '-F 4 2 3'}",mp-1112928,0.098001967583333,2.1261,"['Au', 'Cl', 'Cs', 'Er']",[4.295041476901443]
321,Cs2ScInI6,"{'symprec': 0.1, 'source': 'spglib', 'symbol': 'Fm-3m', 'number': 225, 'point_group': 'm-3m', 'crystal_system': 'cubic', 'hall': '-F 4 2 3'}",mp-1113068,0.0,2.129,"['Cs', 'I', 'In', 'Sc']",[]
322,Rb2LaCuCl6,"{'symprec': 0.1, 'source': 'spglib', 'symbol': 'Fm-3m', 'number': 225, 'point_group': 'm-3m', 'crystal_system': 'cubic', 'hall': '-F 4 2 3'}",mp-1113343,0.0751424457500014,2.1383000000000005,"['Cl', 'Cu', 'La', 'Rb']",[4.225722663954233]
323,Cs2RbGaBr6,"{'symprec': 0.1, 'source': 'spglib', 'symbol': 'Fm-3m', 'number': 225, 'point_group': 'm-3m', 'crystal_system': 'cubic', 'hall': '-F 4 2 3'}",mp-1112518,0.0876492117499987,2.1443,"['Br', 'Cs', 'Ga', 'Rb']",[4.648427324334179]
324,Cs2KGaBr6,"{'symprec': 0.1, 'source': 'spglib', 'symbol': 'Fm-3m', 'number': 225, 'point_group': 'm-3m', 'crystal_system': 'cubic', 'hall': '-F 4 2 3'}",mp-1112623,0.0789130177499988,2.1457,"['Br', 'Cs', 'Ga', 'K']",[4.174861286999247]
325,Rb2TlInBr6,"{'symprec': 0.1, 'source': 'spglib', 'symbol': 'Fm-3m', 'number': 225, 'point_group': 'm-3m', 'crystal_system': 'cubic', 'hall': '-F 4 2 3'}",mp-1114395,0.008670595999999,2.1675,"['Br', 'In', 'Rb', 'Tl']",[5.02542207923044]
326,KRb2GaBr6,"{'symprec': 0.1, 'source': 'spglib', 'symbol': 'Fm-3m', 'number': 225, 'point_group': 'm-3m', 'crystal_system': 'cubic', 'hall': '-F 4 2 3'}",mp-1114656,0.0982815544999993,2.1746,"['Br', 'Ga', 'K', 'Rb']",[4.427409632942263]
327,Cs2DyAuCl6,"{'symprec': 0.1, 'source': 'spglib', 'symbol': 'Fm-3m', 'number': 225, 'point_group': 'm-3m', 'crystal_system': 'cubic', 'hall': '-F 4 2 3'}",mp-1112927,0.0998005906666672,2.1786,"['Au', 'Cl', 'Cs', 'Dy']",[4.340615424860398]
328,Cs2KAsI6,"{'symprec': 0.1, 'source': 'spglib', 'symbol': 'Fm-3m', 'number': 225, 'point_group': 'm-3m', 'crystal_system': 'cubic', 'hall': '-F 4 2 3'}",mp-1112793,0.0240939550000001,2.1792,"['As', 'Cs', 'I', 'K']",[4.449789432964924]