,pretty_formula,spacegroup,material_id,e_above_hull,band_gap,elements,tolerance
319,Cs2NaNdCl6,"{'symprec': 0.1, 'source': 'spglib', 'symbol': 'Fm-3m', 'number': 225, 'point_group': 'm-3m', 'crystal_system': 'cubic', 'hall': '-F 4 2 3'}",mp-1112006,0.0,5.0403,"['Cl', 'Na', 'Nd']",['4.068200317958328']
320,Cs2LiTbCl6,"{'symprec': 0.1, 'source': 'spglib', 'symbol': 'Fm-3m', 'number': 225, 'point_group': 'm-3m', 'crystal_system': 'cubic', 'hall': '-F 4 2 3'}",mp-1112669,0.0,5.042000000000001,"['Cl', 'Li', 'Tb']",['4.05038685780144']
324,Cs2LiDyCl6,"{'symprec': 0.1, 'source': 'spglib', 'symbol': 'Fm-3m', 'number': 225, 'point_group': 'm-3m', 'crystal_system': 'cubic', 'hall': '-F 4 2 3'}",mp-1113018,0.0,5.0902,"['Cl', 'Dy', 'Li']",['4.055721413738166']
326,Cs2NaSmCl6,"{'symprec': 0.1, 'source': 'spglib', 'symbol': 'Fm-3m', 'number': 225, 'point_group': 'm-3m', 'crystal_system': 'cubic', 'hall': '-F 4 2 3'}",mp-580541,0.0,5.1087,"['Cl', 'Na', 'Sm']",['4.05277325488503']
327,Cs2NaYCl6,"{'symprec': 0.1, 'source': 'spglib', 'symbol': 'Fm-3m', 'number': 225, 'point_group': 'm-3m', 'crystal_system': 'cubic', 'hall': '-F 4 2 3'}",mp-23120,0.0,5.1215,"['Cl', 'Na', 'Y']",['4.02622815790257']
330,Cs2LiErCl6,"{'symprec': 0.1, 'source': 'spglib', 'symbol': 'Fm-3m', 'number': 225, 'point_group': 'm-3m', 'crystal_system': 'cubic', 'hall': '-F 4 2 3'}",mp-1112613,0.0,5.1836,"['Cl', 'Er', 'Li']",['4.067544704393708']
334,Cs2NaTbCl6,"{'symprec': 0.1, 'source': 'spglib', 'symbol': 'Fm-3m', 'number': 225, 'point_group': 'm-3m', 'crystal_system': 'cubic', 'hall': '-F 4 2 3'}",mp-568670,0.0,5.251099999999999,"['Cl', 'Na', 'Tb']",['4.03519202869988']
336,Cs2LiTmCl6,"{'symprec': 0.1, 'source': 'spglib', 'symbol': 'Fm-3m', 'number': 225, 'point_group': 'm-3m', 'crystal_system': 'cubic', 'hall': '-F 4 2 3'}",mp-1112998,0.0,5.2584,"['Cl', 'Li', 'Tm']",['4.073442108956015']
340,Cs2NaDyCl6,"{'symprec': 0.1, 'source': 'spglib', 'symbol': 'Fm-3m', 'number': 225, 'point_group': 'm-3m', 'crystal_system': 'cubic', 'hall': '-F 4 2 3'}",mp-1112990,0.0,5.2998,"['Cl', 'Dy', 'Na']",['4.030646159190228']
341,Cs2NaHoCl6,"{'symprec': 0.1, 'source': 'spglib', 'symbol': 'Fm-3m', 'number': 225, 'point_group': 'm-3m', 'crystal_system': 'cubic', 'hall': '-F 4 2 3'}",mp-542951,0.0,5.3398,"['Cl', 'Ho', 'Na']",['4.026574639295827']
342,Cs2NaErCl6,"{'symprec': 0.1, 'source': 'spglib', 'symbol': 'Fm-3m', 'number': 225, 'point_group': 'm-3m', 'crystal_system': 'cubic', 'hall': '-F 4 2 3'}",mp-580589,0.0,5.395499999999999,"['Cl', 'Er', 'Na']",['4.022981482699635']
343,Cs2LiLuCl6,"{'symprec': 0.1, 'source': 'spglib', 'symbol': 'Fm-3m', 'number': 225, 'point_group': 'm-3m', 'crystal_system': 'cubic', 'hall': '-F 4 2 3'}",mp-570379,0.0,5.4223,"['Li', 'Lu', 'Cl']",['4.085579695794153']
344,Cs2NaTmCl6,"{'symprec': 0.1, 'source': 'spglib', 'symbol': 'Fm-3m', 'number': 225, 'point_group': 'm-3m', 'crystal_system': 'cubic', 'hall': '-F 4 2 3'}",mp-1112567,0.0,5.4524,"['Cl', 'Na', 'Tm']",['4.020133824043878']
345,Cs2NaLuCl6,"{'symprec': 0.1, 'source': 'spglib', 'symbol': 'Fm-3m', 'number': 225, 'point_group': 'm-3m', 'crystal_system': 'cubic', 'hall': '-F 4 2 3'}",mp-1112008,0.0,5.5125,"['Cl', 'Lu', 'Na']",['4.015835977392221']