,pretty_formula,spacegroup,material_id,e_above_hull,band_gap,elements,tolerance
412,Cs2ScAgBr6,"{'symprec': 0.1, 'source': 'spglib', 'symbol': 'Fm-3m', 'number': 225, 'point_group': 'm-3m', 'crystal_system': 'cubic', 'hall': '-F 4 2 3'}",mp-1113451,0.0181497076874999,2.888,"['Ag', 'Br', 'Cs', 'Sc']",[4.174862485938187]
413,Rb2ScAgBr6,"{'symprec': 0.1, 'source': 'spglib', 'symbol': 'Fm-3m', 'number': 225, 'point_group': 'm-3m', 'crystal_system': 'cubic', 'hall': '-F 4 2 3'}",mp-1113696,0.0219197246249991,2.9083,"['Ag', 'Br', 'Rb', 'Sc']",[4.428242417400627]
414,Rb2AlTlBr6,"{'symprec': 0.1, 'source': 'spglib', 'symbol': 'Fm-3m', 'number': 225, 'point_group': 'm-3m', 'crystal_system': 'cubic', 'hall': '-F 4 2 3'}",mp-1114466,0.0758273857500007,2.9088000000000003,"['Al', 'Br', 'Rb', 'Tl']",[4.397107467660216]
415,Cs2LiBiBr6,"{'symprec': 0.1, 'source': 'spglib', 'symbol': 'Fm-3m', 'number': 225, 'point_group': 'm-3m', 'crystal_system': 'cubic', 'hall': '-F 4 2 3'}",mp-1112682,0.0107461260000012,2.9097,"['Bi', 'Br', 'Cs', 'Li']",[4.186530447614101]
416,Rb2NaGaCl6,"{'symprec': 0.1, 'source': 'spglib', 'symbol': 'Fm-3m', 'number': 225, 'point_group': 'm-3m', 'crystal_system': 'cubic', 'hall': '-F 4 2 3'}",mp-1114669,0.0564806442499987,2.9117,"['Cl', 'Ga', 'Na', 'Rb']",[4.2265071919662605]
417,Rb2LiBiBr6,"{'symprec': 0.1, 'source': 'spglib', 'symbol': 'Fm-3m', 'number': 225, 'point_group': 'm-3m', 'crystal_system': 'cubic', 'hall': '-F 4 2 3'}",mp-1114561,0.0332040558749997,2.9118,"['Bi', 'Br', 'Li', 'Rb']",[4.389978259668662]
418,Rb2LiSbCl6,"{'symprec': 0.1, 'source': 'spglib', 'symbol': 'Fm-3m', 'number': 225, 'point_group': 'm-3m', 'crystal_system': 'cubic', 'hall': '-F 4 2 3'}",mp-1114428,0.0,2.9382,"['Cl', 'Li', 'Rb', 'Sb']",[4.266969029146348]
419,Cs2LiSbCl6,"{'symprec': 0.1, 'source': 'spglib', 'symbol': 'Fm-3m', 'number': 225, 'point_group': 'm-3m', 'crystal_system': 'cubic', 'hall': '-F 4 2 3'}",mp-1112676,0.0183836927499987,2.9461,"['Cl', 'Cs', 'Li', 'Sb']",[4.172737018732377]
420,Rb2LiPrI6,"{'symprec': 0.1, 'source': 'spglib', 'symbol': 'Fm-3m', 'number': 225, 'point_group': 'm-3m', 'crystal_system': 'cubic', 'hall': '-F 4 2 3'}",mp-1114574,0.0469439952500003,2.9487,"['I', 'Li', 'Pr', 'Rb']",[4.660149537687348]
421,Rb2LiNdI6,"{'symprec': 0.1, 'source': 'spglib', 'symbol': 'Fm-3m', 'number': 225, 'point_group': 'm-3m', 'crystal_system': 'cubic', 'hall': '-F 4 2 3'}",mp-1114425,0.0415691190000013,2.9612,"['I', 'Li', 'Nd', 'Rb']",[4.660563555035451]
422,Cs2KSbBr6,"{'symprec': 0.1, 'source': 'spglib', 'symbol': 'Fm-3m', 'number': 225, 'point_group': 'm-3m', 'crystal_system': 'cubic', 'hall': '-F 4 2 3'}",mp-1113034,0.0262422510000011,2.9647,"['Br', 'Cs', 'K', 'Sb']",[4.248590622411159]
423,Cs2AlTlBr6,"{'symprec': 0.1, 'source': 'spglib', 'symbol': 'Fm-3m', 'number': 225, 'point_group': 'm-3m', 'crystal_system': 'cubic', 'hall': '-F 4 2 3'}",mp-1112506,0.0559708202500006,2.9654000000000003,"['Al', 'Br', 'Cs', 'Tl']",[4.181027046004107]
424,Cs2LiPrI6,"{'symprec': 0.1, 'source': 'spglib', 'symbol': 'Fm-3m', 'number': 225, 'point_group': 'm-3m', 'crystal_system': 'cubic', 'hall': '-F 4 2 3'}",mp-1113008,0.0,2.9665,"['Cs', 'I', 'Li', 'Pr']",[4.475331207270678]
425,Cs2LiNdI6,"{'symprec': 0.1, 'source': 'spglib', 'symbol': 'Fm-3m', 'number': 225, 'point_group': 'm-3m', 'crystal_system': 'cubic', 'hall': '-F 4 2 3'}",mp-1113010,0.0,2.9795000000000003,"['Cs', 'I', 'Li', 'Nd']",[4.478903008199987]
426,Cs2LiYI6,"{'symprec': 0.1, 'source': 'spglib', 'symbol': 'Fm-3m', 'number': 225, 'point_group': 'm-3m', 'crystal_system': 'cubic', 'hall': '-F 4 2 3'}",mp-1112663,0.0,3.0024,"['Cs', 'I', 'Li', 'Y']",[4.533536437243453]
427,Rb2LiYI6,"{'symprec': 0.1, 'source': 'spglib', 'symbol': 'Fm-3m', 'number': 225, 'point_group': 'm-3m', 'crystal_system': 'cubic', 'hall': '-F 4 2 3'}",mp-1114584,0.0270746040000009,3.0067,"['I', 'Li', 'Rb', 'Y']",[4.679872455718371]
428,Cs2NaGdCl6,"{'symprec': 0.1, 'source': 'spglib', 'symbol': 'Fm-3m', 'number': 225, 'point_group': 'm-3m', 'crystal_system': 'cubic', 'hall': '-F 4 2 3'}",mp-1112657,0.0,3.0097,"['Cl', 'Cs', 'Gd', 'Na']",[4.042148970808524]
429,Rb2AlInCl6,"{'symprec': 0.1, 'source': 'spglib', 'symbol': 'Fm-3m', 'number': 225, 'point_group': 'm-3m', 'crystal_system': 'cubic', 'hall': '-F 4 2 3'}",mp-1114385,0.0604433123124996,3.0157,"['Al', 'Cl', 'In', 'Rb']",[]
430,Cs2KAsBr6,"{'symprec': 0.1, 'source': 'spglib', 'symbol': 'Fm-3m', 'number': 225, 'point_group': 'm-3m', 'crystal_system': 'cubic', 'hall': '-F 4 2 3'}",mp-1112792,0.0,3.0211,"['As', 'Br', 'Cs', 'K']",[4.181528332558987]
431,Cs2RbSbBr6,"{'symprec': 0.1, 'source': 'spglib', 'symbol': 'Fm-3m', 'number': 225, 'point_group': 'm-3m', 'crystal_system': 'cubic', 'hall': '-F 4 2 3'}",mp-1112121,0.0374995890000016,3.0252000000000003,"['Br', 'Cs', 'Rb', 'Sb']",[5.2443764187774295]
432,KRb2AsBr6,"{'symprec': 0.1, 'source': 'spglib', 'symbol': 'Fm-3m', 'number': 225, 'point_group': 'm-3m', 'crystal_system': 'cubic', 'hall': '-F 4 2 3'}",mp-1114654,0.0281765495000003,3.042,"['As', 'Br', 'K', 'Rb']",[4.396240195318947]
433,Rb2NaGdCl6,"{'symprec': 0.1, 'source': 'spglib', 'symbol': 'Fm-3m', 'number': 225, 'point_group': 'm-3m', 'crystal_system': 'cubic', 'hall': '-F 4 2 3'}",mp-1114441,0.0064075699999994,3.0565,"['Cl', 'Gd', 'Na', 'Rb']",[4.375691173502354]
434,Cs2RbAsBr6,"{'symprec': 0.1, 'source': 'spglib', 'symbol': 'Fm-3m', 'number': 225, 'point_group': 'm-3m', 'crystal_system': 'cubic', 'hall': '-F 4 2 3'}",mp-1112134,0.0,3.0927,"['As', 'Br', 'Cs', 'Rb']",[4.5447155157062]
435,Rb2YInBr6,"{'symprec': 0.1, 'source': 'spglib', 'symbol': 'Fm-3m', 'number': 225, 'point_group': 'm-3m', 'crystal_system': 'cubic', 'hall': '-F 4 2 3'}",mp-1114527,0.0167939724999994,3.0981,"['Br', 'In', 'Rb', 'Y']",[]
436,Rb2NaPrI6,"{'symprec': 0.1, 'source': 'spglib', 'symbol': 'Fm-3m', 'number': 225, 'point_group': 'm-3m', 'crystal_system': 'cubic', 'hall': '-F 4 2 3'}",mp-1114453,0.0471291277500007,3.1088,"['I', 'Na', 'Pr', 'Rb']",[4.844400898682704]
437,Rb2ScTlBr6,"{'symprec': 0.1, 'source': 'spglib', 'symbol': 'Fm-3m', 'number': 225, 'point_group': 'm-3m', 'crystal_system': 'cubic', 'hall': '-F 4 2 3'}",mp-1114611,0.0354845189999997,3.1100000000000003,"['Br', 'Rb', 'Sc', 'Tl']",[4.813391318494713]
438,Cs2NaPrI6,"{'symprec': 0.1, 'source': 'spglib', 'symbol': 'Fm-3m', 'number': 225, 'point_group': 'm-3m', 'crystal_system': 'cubic', 'hall': '-F 4 2 3'}",mp-1112144,0.0,3.1134,"['Cs', 'I', 'Na', 'Pr']",[4.461047583523907]
439,Cs2NaInCl6,"{'symprec': 0.1, 'source': 'spglib', 'symbol': 'Fm-3m', 'number': 225, 'point_group': 'm-3m', 'crystal_system': 'cubic', 'hall': '-F 4 2 3'}",mp-989571,0.0,3.1233,"['Cl', 'Cs', 'In', 'Na']",[4.012229079104603]
440,Rb2NaNdI6,"{'symprec': 0.1, 'source': 'spglib', 'symbol': 'Fm-3m', 'number': 225, 'point_group': 'm-3m', 'crystal_system': 'cubic', 'hall': '-F 4 2 3'}",mp-1114449,0.0412991125000017,3.1242,"['I', 'Na', 'Nd', 'Rb']",[4.833992911749819]
441,Cs2NaSbCl6,"{'symprec': 0.1, 'source': 'spglib', 'symbol': 'Fm-3m', 'number': 225, 'point_group': 'm-3m', 'crystal_system': 'cubic', 'hall': '-F 4 2 3'}",mp-989514,0.0013286090000015,3.1285,"['Cs', 'Na', 'Sb', 'Cl']",[4.018773470780202]
442,Rb2NaSbCl6,"{'symprec': 0.1, 'source': 'spglib', 'symbol': 'Fm-3m', 'number': 225, 'point_group': 'm-3m', 'crystal_system': 'cubic', 'hall': '-F 4 2 3'}",mp-989545,0.0,3.1339,"['Rb', 'Na', 'Sb', 'Cl']",[4.217468065953378]
443,Rb2NaScBr6,"{'symprec': 0.1, 'source': 'spglib', 'symbol': 'Fm-3m', 'number': 225, 'point_group': 'm-3m', 'crystal_system': 'cubic', 'hall': '-F 4 2 3'}",mp-1114662,0.0073220349999996,3.1403,"['Br', 'Na', 'Rb', 'Sc']",[4.384557701685619]
444,Rb2NaYI6,"{'symprec': 0.1, 'source': 'spglib', 'symbol': 'Fm-3m', 'number': 225, 'point_group': 'm-3m', 'crystal_system': 'cubic', 'hall': '-F 4 2 3'}",mp-1114603,0.0245375745,3.1407,"['I', 'Na', 'Rb', 'Y']",[4.733797609544421]
445,Cs2NaScBr6,"{'symprec': 0.1, 'source': 'spglib', 'symbol': 'Fm-3m', 'number': 225, 'point_group': 'm-3m', 'crystal_system': 'cubic', 'hall': '-F 4 2 3'}",mp-1112534,0.0,3.1426,"['Br', 'Cs', 'Na', 'Sc']",[4.195236926058296]
446,Cs2KGdCl6,"{'symprec': 0.1, 'source': 'spglib', 'symbol': 'Fm-3m', 'number': 225, 'point_group': 'm-3m', 'crystal_system': 'cubic', 'hall': '-F 4 2 3'}",mp-1113049,0.0,3.1441,"['Cl', 'Cs', 'Gd', 'K']",[4.415498397889167]
447,Rb2NaBiBr6,"{'symprec': 0.1, 'source': 'spglib', 'symbol': 'Fm-3m', 'number': 225, 'point_group': 'm-3m', 'crystal_system': 'cubic', 'hall': '-F 4 2 3'}",mp-1114585,0.0313808143749994,3.1446,"['Bi', 'Br', 'Na', 'Rb']",[4.675753397696544]
448,Cs2AlInCl6,"{'symprec': 0.1, 'source': 'spglib', 'symbol': 'Fm-3m', 'number': 225, 'point_group': 'm-3m', 'crystal_system': 'cubic', 'hall': '-F 4 2 3'}",mp-1113280,0.0464007589999986,3.1453,"['Al', 'Cl', 'Cs', 'In']",[]
449,Cs2NaAsCl6,"{'symprec': 0.1, 'source': 'spglib', 'symbol': 'Fm-3m', 'number': 225, 'point_group': 'm-3m', 'crystal_system': 'cubic', 'hall': '-F 4 2 3'}",mp-989608,0.0154454559999996,3.1542,"['Cs', 'Na', 'As', 'Cl']",[4.153762390284089]
450,Cs2NaYI6,"{'symprec': 0.1, 'source': 'spglib', 'symbol': 'Fm-3m', 'number': 225, 'point_group': 'm-3m', 'crystal_system': 'cubic', 'hall': '-F 4 2 3'}",mp-1112137,0.0,3.1561,"['Cs', 'I', 'Na', 'Y']",[4.433273947107917]
451,Cs2RbGdCl6,"{'symprec': 0.1, 'source': 'spglib', 'symbol': 'Fm-3m', 'number': 225, 'point_group': 'm-3m', 'crystal_system': 'cubic', 'hall': '-F 4 2 3'}",mp-1112516,0.0109060725,3.1649,"['Cl', 'Cs', 'Gd', 'Rb']",[6.696578202550571]
452,CsRb2AsBr6,"{'symprec': 0.1, 'source': 'spglib', 'symbol': 'Fm-3m', 'number': 225, 'point_group': 'm-3m', 'crystal_system': 'cubic', 'hall': '-F 4 2 3'}",mp-1113426,0.061769111250002,3.1727000000000003,"['As', 'Br', 'Cs', 'Rb']",[4.5447155157062]
453,Rb2NaAsCl6,"{'symprec': 0.1, 'source': 'spglib', 'symbol': 'Fm-3m', 'number': 225, 'point_group': 'm-3m', 'crystal_system': 'cubic', 'hall': '-F 4 2 3'}",mp-1114362,0.0,3.1733,"['As', 'Cl', 'Na', 'Rb']",[4.25439495917632]
454,KRb2GdCl6,"{'symprec': 0.1, 'source': 'spglib', 'symbol': 'Fm-3m', 'number': 225, 'point_group': 'm-3m', 'crystal_system': 'cubic', 'hall': '-F 4 2 3'}",mp-1114538,0.0303462919999999,3.175,"['Cl', 'Gd', 'K', 'Rb']",[5.202964944175641]
455,Cs2ScTlBr6,"{'symprec': 0.1, 'source': 'spglib', 'symbol': 'Fm-3m', 'number': 225, 'point_group': 'm-3m', 'crystal_system': 'cubic', 'hall': '-F 4 2 3'}",mp-1112493,0.0151416454999999,3.1775,"['Br', 'Cs', 'Sc', 'Tl']",[4.3088233024028]
456,Cs2NaBiBr6,"{'symprec': 0.1, 'source': 'spglib', 'symbol': 'Fm-3m', 'number': 225, 'point_group': 'm-3m', 'crystal_system': 'cubic', 'hall': '-F 4 2 3'}",mp-1112661,0.0016586295000013,3.194,"['Bi', 'Br', 'Cs', 'Na']",[4.249944671126636]
457,Rb2NaInCl6,"{'symprec': 0.1, 'source': 'spglib', 'symbol': 'Fm-3m', 'number': 225, 'point_group': 'm-3m', 'crystal_system': 'cubic', 'hall': '-F 4 2 3'}",mp-989547,0.0,3.2146,"['Cl', 'In', 'Na', 'Rb']",[4.237236300522426]
458,CsRb2GdCl6,"{'symprec': 0.1, 'source': 'spglib', 'symbol': 'Fm-3m', 'number': 225, 'point_group': 'm-3m', 'crystal_system': 'cubic', 'hall': '-F 4 2 3'}",mp-1113407,0.080714909750001,3.2204,"['Cl', 'Cs', 'Gd', 'Rb']",[6.696578202550571]
459,Cs2YInBr6,"{'symprec': 0.1, 'source': 'spglib', 'symbol': 'Fm-3m', 'number': 225, 'point_group': 'm-3m', 'crystal_system': 'cubic', 'hall': '-F 4 2 3'}",mp-1113063,0.0062462669999994,3.2242,"['Br', 'Cs', 'In', 'Y']",[]
460,Rb2YTlI6,"{'symprec': 0.1, 'source': 'spglib', 'symbol': 'Fm-3m', 'number': 225, 'point_group': 'm-3m', 'crystal_system': 'cubic', 'hall': '-F 4 2 3'}",mp-1114614,0.0469552345000003,3.2251,"['I', 'Rb', 'Tl', 'Y']",[5.762874361795086]
461,KRb2ScBr6,"{'symprec': 0.1, 'source': 'spglib', 'symbol': 'Fm-3m', 'number': 225, 'point_group': 'm-3m', 'crystal_system': 'cubic', 'hall': '-F 4 2 3'}",mp-1114409,0.0282568749999994,3.2273,"['Br', 'K', 'Rb', 'Sc']",[4.6358043296101235]
462,Cs2LiInCl6,"{'symprec': 0.1, 'source': 'spglib', 'symbol': 'R-3m', 'number': 166, 'point_group': '-3m', 'crystal_system': 'trigonal', 'hall': '-R 3 2""'}",mp-571527,0.0,3.2284,"['Cl', 'Cs', 'In', 'Li']",[4.133370208769357]
463,Cs2KScBr6,"{'symprec': 0.1, 'source': 'spglib', 'symbol': 'Fm-3m', 'number': 225, 'point_group': 'm-3m', 'crystal_system': 'cubic', 'hall': '-F 4 2 3'}",mp-1113047,0.0099332675000014,3.2299,"['Br', 'Cs', 'K', 'Sc']",[4.233885363404445]
464,Cs2RbAlBr6,"{'symprec': 0.1, 'source': 'spglib', 'symbol': 'Fm-3m', 'number': 225, 'point_group': 'm-3m', 'crystal_system': 'cubic', 'hall': '-F 4 2 3'}",mp-1112531,0.0655660662499992,3.2316000000000003,"['Al', 'Br', 'Cs', 'Rb']",[4.458713682068899]
465,Cs2YTlI6,"{'symprec': 0.1, 'source': 'spglib', 'symbol': 'Fm-3m', 'number': 225, 'point_group': 'm-3m', 'crystal_system': 'cubic', 'hall': '-F 4 2 3'}",mp-1112156,0.0039362145000003,3.2366,"['Cs', 'I', 'Tl', 'Y']",[4.855478213963844]
466,Cs2KPrI6,"{'symprec': 0.1, 'source': 'spglib', 'symbol': 'Fm-3m', 'number': 225, 'point_group': 'm-3m', 'crystal_system': 'cubic', 'hall': '-F 4 2 3'}",mp-1113035,0.004710938875001,3.2604,"['Cs', 'I', 'K', 'Pr']",[4.886492582513985]
467,Cs2RbScBr6,"{'symprec': 0.1, 'source': 'spglib', 'symbol': 'Fm-3m', 'number': 225, 'point_group': 'm-3m', 'crystal_system': 'cubic', 'hall': '-F 4 2 3'}",mp-1112119,0.0218147795000014,3.2669,"['Br', 'Cs', 'Rb', 'Sc']",[5.160399318997725]
468,Cs2KNdI6,"{'symprec': 0.1, 'source': 'spglib', 'symbol': 'Fm-3m', 'number': 225, 'point_group': 'm-3m', 'crystal_system': 'cubic', 'hall': '-F 4 2 3'}",mp-1113039,0.0011277410000012,3.2681,"['Cs', 'I', 'K', 'Nd']",[4.867849625006502]
469,Cs2KAlBr6,"{'symprec': 0.1, 'source': 'spglib', 'symbol': 'Fm-3m', 'number': 225, 'point_group': 'm-3m', 'crystal_system': 'cubic', 'hall': '-F 4 2 3'}",mp-1113061,0.0568558142499986,3.2703,"['Al', 'Br', 'Cs', 'K']",[4.2058201019397785]
470,Cs2KYI6,"{'symprec': 0.1, 'source': 'spglib', 'symbol': 'Fm-3m', 'number': 225, 'point_group': 'm-3m', 'crystal_system': 'cubic', 'hall': '-F 4 2 3'}",mp-1112687,0.0026421485000005,3.2834,"['Cs', 'I', 'K', 'Y']",[4.6789781775162105]
471,CsRb2ScBr6,"{'symprec': 0.1, 'source': 'spglib', 'symbol': 'Fm-3m', 'number': 225, 'point_group': 'm-3m', 'crystal_system': 'cubic', 'hall': '-F 4 2 3'}",mp-1113608,0.0814697666666681,3.3041,"['Br', 'Cs', 'Rb', 'Sc']",[5.160399318997725]
472,Rb2PrAgBr6,"{'symprec': 0.1, 'source': 'spglib', 'symbol': 'Fm-3m', 'number': 225, 'point_group': 'm-3m', 'crystal_system': 'cubic', 'hall': '-F 4 2 3'}",mp-1113713,0.0499699297500009,3.3066,"['Ag', 'Br', 'Pr', 'Rb']",[4.862718136127475]
473,KRb2AlBr6,"{'symprec': 0.1, 'source': 'spglib', 'symbol': 'Fm-3m', 'number': 225, 'point_group': 'm-3m', 'crystal_system': 'cubic', 'hall': '-F 4 2 3'}",mp-1114652,0.0747149237499997,3.3134,"['Al', 'Br', 'K', 'Rb']",[4.382333055900675]
474,Rb2NdAgBr6,"{'symprec': 0.1, 'source': 'spglib', 'symbol': 'Fm-3m', 'number': 225, 'point_group': 'm-3m', 'crystal_system': 'cubic', 'hall': '-F 4 2 3'}",mp-1113715,0.0446290365000008,3.3158,"['Ag', 'Br', 'Nd', 'Rb']",[4.84344957085529]
475,Rb2ScAgCl6,"{'symprec': 0.1, 'source': 'spglib', 'symbol': 'Fm-3m', 'number': 225, 'point_group': 'm-3m', 'crystal_system': 'cubic', 'hall': '-F 4 2 3'}",mp-1113338,0.0,3.3213,"['Ag', 'Cl', 'Rb', 'Sc']",[4.266186757928791]
476,Cs2RbYI6,"{'symprec': 0.1, 'source': 'spglib', 'symbol': 'Fm-3m', 'number': 225, 'point_group': 'm-3m', 'crystal_system': 'cubic', 'hall': '-F 4 2 3'}",mp-1112507,0.0144150075000006,3.3299,"['Cs', 'I', 'Rb', 'Y']",[6.561745251011091]
477,Rb2YAgBr6,"{'symprec': 0.1, 'source': 'spglib', 'symbol': 'Fm-3m', 'number': 225, 'point_group': 'm-3m', 'crystal_system': 'cubic', 'hall': '-F 4 2 3'}",mp-1113556,0.0089877844999994,3.3533,"['Ag', 'Br', 'Rb', 'Y']",[4.647727287207704]
478,Rb2YInCl6,"{'symprec': 0.1, 'source': 'spglib', 'symbol': 'Fm-3m', 'number': 225, 'point_group': 'm-3m', 'crystal_system': 'cubic', 'hall': '-F 4 2 3'}",mp-1114528,0.0412542542124994,3.3592,"['Cl', 'In', 'Rb', 'Y']",[]
479,Cs2KGaCl6,"{'symprec': 0.1, 'source': 'spglib', 'symbol': 'Fm-3m', 'number': 225, 'point_group': 'm-3m', 'crystal_system': 'cubic', 'hall': '-F 4 2 3'}",mp-1113050,0.0523498575000003,3.3618,"['Cl', 'Cs', 'Ga', 'K']",[4.012696755725093]
480,Cs2YAgBr6,"{'symprec': 0.1, 'source': 'spglib', 'symbol': 'Fm-3m', 'number': 225, 'point_group': 'm-3m', 'crystal_system': 'cubic', 'hall': '-F 4 2 3'}",mp-1112934,0.0049141476874994,3.3675,"['Ag', 'Br', 'Cs', 'Y']",[4.238609914542074]
481,CsRb2SbCl6,"{'symprec': 0.1, 'source': 'spglib', 'symbol': 'Fm-3m', 'number': 225, 'point_group': 'm-3m', 'crystal_system': 'cubic', 'hall': '-F 4 2 3'}",mp-1113396,0.077297841583336,3.3986,"['Cl', 'Cs', 'Rb', 'Sb']",[5.111231000193998]
482,Cs2NdAgBr6,"{'symprec': 0.1, 'source': 'spglib', 'symbol': 'Fm-3m', 'number': 225, 'point_group': 'm-3m', 'crystal_system': 'cubic', 'hall': '-F 4 2 3'}",mp-1112944,0.0,3.4075,"['Ag', 'Br', 'Cs', 'Nd']",[4.322153293435308]
483,Cs2KSbCl6,"{'symprec': 0.1, 'source': 'spglib', 'symbol': 'Fm-3m', 'number': 225, 'point_group': 'm-3m', 'crystal_system': 'cubic', 'hall': '-F 4 2 3'}",mp-1112716,0.0122465540000011,3.4088,"['Cl', 'Cs', 'K', 'Sb']",[4.102121891124065]
484,Cs2ScAgCl6,"{'symprec': 0.1, 'source': 'spglib', 'symbol': 'Fm-3m', 'number': 225, 'point_group': 'm-3m', 'crystal_system': 'cubic', 'hall': '-F 4 2 3'}",mp-1112622,0.0,3.4125,"['Ag', 'Cl', 'Cs', 'Sc']",[4.012806826466352]
485,KRb2GaCl6,"{'symprec': 0.1, 'source': 'spglib', 'symbol': 'Fm-3m', 'number': 225, 'point_group': 'm-3m', 'crystal_system': 'cubic', 'hall': '-F 4 2 3'}",mp-1114657,0.0710434622499986,3.4389000000000003,"['Cl', 'Ga', 'K', 'Rb']",[4.265245101668109]
486,Cs2RbGaCl6,"{'symprec': 0.1, 'source': 'spglib', 'symbol': 'Fm-3m', 'number': 225, 'point_group': 'm-3m', 'crystal_system': 'cubic', 'hall': '-F 4 2 3'}",mp-1112517,0.0616348784999987,3.471,"['Cl', 'Cs', 'Ga', 'Rb']",[4.501013851122879]
487,Cs2KAsCl6,"{'symprec': 0.1, 'source': 'spglib', 'symbol': 'Fm-3m', 'number': 225, 'point_group': 'm-3m', 'crystal_system': 'cubic', 'hall': '-F 4 2 3'}",mp-1112625,0.0214673309999988,3.4842,"['As', 'Cl', 'Cs', 'K']",[4.013865144805276]
488,Rb2ScTlCl6,"{'symprec': 0.1, 'source': 'spglib', 'symbol': 'Fm-3m', 'number': 225, 'point_group': 'm-3m', 'crystal_system': 'cubic', 'hall': '-F 4 2 3'}",mp-1114663,0.0,3.4899,"['Cl', 'Rb', 'Sc', 'Tl']",[4.6714961875425915]
489,Cs2RbAsCl6,"{'symprec': 0.1, 'source': 'spglib', 'symbol': 'Fm-3m', 'number': 225, 'point_group': 'm-3m', 'crystal_system': 'cubic', 'hall': '-F 4 2 3'}",mp-1112007,0.032604126999999,3.4902,"['As', 'Cl', 'Cs', 'Rb']",[4.392303563214144]
490,KRb2AsCl6,"{'symprec': 0.1, 'source': 'spglib', 'symbol': 'Fm-3m', 'number': 225, 'point_group': 'm-3m', 'crystal_system': 'cubic', 'hall': '-F 4 2 3'}",mp-1114655,0.0154780212500007,3.5016,"['As', 'Cl', 'K', 'Rb']",[4.228577007565236]
491,Cs2RbSbCl6,"{'symprec': 0.1, 'source': 'spglib', 'symbol': 'Fm-3m', 'number': 225, 'point_group': 'm-3m', 'crystal_system': 'cubic', 'hall': '-F 4 2 3'}",mp-1112122,0.0245451800000013,3.5021,"['Cl', 'Cs', 'Rb', 'Sb']",[5.111231000193998]
492,Cs2YInCl6,"{'symprec': 0.1, 'source': 'spglib', 'symbol': 'Fm-3m', 'number': 225, 'point_group': 'm-3m', 'crystal_system': 'cubic', 'hall': '-F 4 2 3'}",mp-1112628,0.0092442910625019,3.5192,"['Cl', 'Cs', 'In', 'Y']",[]
493,CsRb2AsCl6,"{'symprec': 0.1, 'source': 'spglib', 'symbol': 'Fm-3m', 'number': 225, 'point_group': 'm-3m', 'crystal_system': 'cubic', 'hall': '-F 4 2 3'}",mp-1113605,0.0857983690833337,3.5203999999999995,"['As', 'Cl', 'Cs', 'Rb']",[4.392303563214144]
494,Cs2KBiBr6,"{'symprec': 0.1, 'source': 'spglib', 'symbol': 'Fm-3m', 'number': 225, 'point_group': 'm-3m', 'crystal_system': 'cubic', 'hall': '-F 4 2 3'}",mp-1112789,0.0149596585000013,3.5275000000000003,"['Bi', 'Br', 'Cs', 'K']",[4.800460740128193]
495,Cs2RbBiBr6,"{'symprec': 0.1, 'source': 'spglib', 'symbol': 'Fm-3m', 'number': 225, 'point_group': 'm-3m', 'crystal_system': 'cubic', 'hall': '-F 4 2 3'}",mp-1112132,0.0262351525000017,3.5829,"['Bi', 'Br', 'Cs', 'Rb']",[8.350749175674977]