,pretty_formula,spacegroup,material_id,e_above_hull,band_gap,elements,tolerance
496,Rb2LaAgCl6,"{'symprec': 0.1, 'source': 'spglib', 'symbol': 'Fm-3m', 'number': 225, 'point_group': 'm-3m', 'crystal_system': 'cubic', 'hall': '-F 4 2 3'}",mp-1113750,0.0436546027499997,3.5894,"['Ag', 'Cl', 'La', 'Rb']",[4.850419780006065]
497,Cs2KInCl6,"{'symprec': 0.1, 'source': 'spglib', 'symbol': 'Fm-3m', 'number': 225, 'point_group': 'm-3m', 'crystal_system': 'cubic', 'hall': '-F 4 2 3'}",mp-1112759,0.0,3.6013,"['Cl', 'Cs', 'In', 'K']",[4.152837277946115]
498,Cs2LiBiCl6,"{'symprec': 0.1, 'source': 'spglib', 'symbol': 'Fm-3m', 'number': 225, 'point_group': 'm-3m', 'crystal_system': 'cubic', 'hall': '-F 4 2 3'}",mp-1113024,0.0090494863333328,3.6054,"['Bi', 'Cl', 'Cs', 'Li']",[4.016992918023442]
499,Cs2ScTlCl6,"{'symprec': 0.1, 'source': 'spglib', 'symbol': 'Fm-3m', 'number': 225, 'point_group': 'm-3m', 'crystal_system': 'cubic', 'hall': '-F 4 2 3'}",mp-1112000,0.0044642239999994,3.61,"['Cl', 'Cs', 'Sc', 'Tl']",[4.16692817145068]
500,Rb2LiBiCl6,"{'symprec': 0.1, 'source': 'spglib', 'symbol': 'Fm-3m', 'number': 225, 'point_group': 'm-3m', 'crystal_system': 'cubic', 'hall': '-F 4 2 3'}",mp-1114562,0.0,3.6126,"['Bi', 'Cl', 'Li', 'Rb']",[4.220440730078003]
501,Cs2LaAgCl6,"{'symprec': 0.1, 'source': 'spglib', 'symbol': 'Fm-3m', 'number': 225, 'point_group': 'm-3m', 'crystal_system': 'cubic', 'hall': '-F 4 2 3'}",mp-1113585,0.0095079039999999,3.6177,"['Ag', 'Cl', 'Cs', 'La']",[4.249879505344593]
502,KRb2InCl6,"{'symprec': 0.1, 'source': 'spglib', 'symbol': 'Fm-3m', 'number': 225, 'point_group': 'm-3m', 'crystal_system': 'cubic', 'hall': '-F 4 2 3'}",mp-989529,0.0,3.6461,"['K', 'Rb', 'In', 'Cl']",[4.640506823485419]
503,Rb2PrAgCl6,"{'symprec': 0.1, 'source': 'spglib', 'symbol': 'Fm-3m', 'number': 225, 'point_group': 'm-3m', 'crystal_system': 'cubic', 'hall': '-F 4 2 3'}",mp-1113680,0.0426396705000042,3.6524,"['Ag', 'Cl', 'Pr', 'Rb']",[4.722137746848592]
504,Rb2NdAgCl6,"{'symprec': 0.1, 'source': 'spglib', 'symbol': 'Fm-3m', 'number': 225, 'point_group': 'm-3m', 'crystal_system': 'cubic', 'hall': '-F 4 2 3'}",mp-1113719,0.0348077902499999,3.6779,"['Ag', 'Cl', 'Nd', 'Rb']",[4.702369528960405]
505,Cs2RbInCl6,"{'symprec': 0.1, 'source': 'spglib', 'symbol': 'Fm-3m', 'number': 225, 'point_group': 'm-3m', 'crystal_system': 'cubic', 'hall': '-F 4 2 3'}",mp-1112125,0.0027301315000003,3.6863,"['Cl', 'Cs', 'In', 'Rb']",[5.36764527630021]
506,Cs2CaSnCl6,"{'symprec': 0.1, 'source': 'spglib', 'symbol': 'Fm-3m', 'number': 225, 'point_group': 'm-3m', 'crystal_system': 'cubic', 'hall': '-F 4 2 3'}",mp-989570,0.0158837669999996,3.6996,"['Cs', 'Ca', 'Sn', 'Cl']",[]
507,Rb2LuAgCl6,"{'symprec': 0.1, 'source': 'spglib', 'symbol': 'Fm-3m', 'number': 225, 'point_group': 'm-3m', 'crystal_system': 'cubic', 'hall': '-F 4 2 3'}",mp-1113737,0.0,3.7147,"['Ag', 'Cl', 'Lu', 'Rb']",[4.4245668709982215]
508,Rb2LiScCl6,"{'symprec': 0.1, 'source': 'spglib', 'symbol': 'Fm-3m', 'number': 225, 'point_group': 'm-3m', 'crystal_system': 'cubic', 'hall': '-F 4 2 3'}",mp-1114429,0.0,3.728,"['Cl', 'Li', 'Rb', 'Sc']",[4.278415947486432]
509,Rb2SmAgCl6,"{'symprec': 0.1, 'source': 'spglib', 'symbol': 'Fm-3m', 'number': 225, 'point_group': 'm-3m', 'crystal_system': 'cubic', 'hall': '-F 4 2 3'}",mp-1113616,0.0158675532500032,3.7353,"['Ag', 'Cl', 'Rb', 'Sm']",[4.635346937802407]
510,Rb2TmAgCl6,"{'symprec': 0.1, 'source': 'spglib', 'symbol': 'Fm-3m', 'number': 225, 'point_group': 'm-3m', 'crystal_system': 'cubic', 'hall': '-F 4 2 3'}",mp-1113580,0.0,3.7384,"['Ag', 'Cl', 'Rb', 'Tm']","[4.45998960086435, 4.391729509299581]"
511,Cs2LuAgCl6,"{'symprec': 0.1, 'source': 'spglib', 'symbol': 'Fm-3m', 'number': 225, 'point_group': 'm-3m', 'crystal_system': 'cubic', 'hall': '-F 4 2 3'}",mp-1113542,0.0,3.7426,"['Ag', 'Cl', 'Cs', 'Lu']",[4.06033521121908]
512,Rb2ErAgCl6,"{'symprec': 0.1, 'source': 'spglib', 'symbol': 'Fm-3m', 'number': 225, 'point_group': 'm-3m', 'crystal_system': 'cubic', 'hall': '-F 4 2 3'}",mp-1113725,0.003274291549999,3.7429,"['Ag', 'Cl', 'Er', 'Rb']",[4.479747411984487]
513,Rb2TbAgCl6,"{'symprec': 0.1, 'source': 'spglib', 'symbol': 'Fm-3m', 'number': 225, 'point_group': 'm-3m', 'crystal_system': 'cubic', 'hall': '-F 4 2 3'}",mp-1113698,0.0087558019499991,3.7497,"['Ag', 'Cl', 'Rb', 'Tb']",[4.550538382371196]
514,Cs2LiLaBr6,"{'symprec': 0.1, 'source': 'spglib', 'symbol': 'Fm-3m', 'number': 225, 'point_group': 'm-3m', 'crystal_system': 'cubic', 'hall': '-F 4 2 3'}",mp-1245352,0.0140252244999992,3.7546,"['Br', 'Cs', 'La', 'Li']",[4.186041386860522]
515,Rb2DyAgCl6,"{'symprec': 0.1, 'source': 'spglib', 'symbol': 'Fm-3m', 'number': 225, 'point_group': 'm-3m', 'crystal_system': 'cubic', 'hall': '-F 4 2 3'}",mp-1113793,0.0068911976499999,3.7568,"['Ag', 'Cl', 'Dy', 'Rb']","[4.525974589523657, 4.4496579892550745]"
516,CsRb2YBr6,"{'symprec': 0.1, 'source': 'spglib', 'symbol': 'Fm-3m', 'number': 225, 'point_group': 'm-3m', 'crystal_system': 'cubic', 'hall': '-F 4 2 3'}",mp-1113330,0.069933623333334,3.768,"['Br', 'Cs', 'Rb', 'Y']",[6.365981737318132]
517,Cs2LiScCl6,"{'symprec': 0.1, 'source': 'spglib', 'symbol': 'Fm-3m', 'number': 225, 'point_group': 'm-3m', 'crystal_system': 'cubic', 'hall': '-F 4 2 3'}",mp-1113004,0.0112161290000001,3.7721,"['Cl', 'Cs', 'Li', 'Sc']",[4.189306843360902]
518,Cs2TmAgCl6,"{'symprec': 0.1, 'source': 'spglib', 'symbol': 'Fm-3m', 'number': 225, 'point_group': 'm-3m', 'crystal_system': 'cubic', 'hall': '-F 4 2 3'}",mp-1113440,0.0,3.775,"['Ag', 'Cl', 'Cs', 'Tm']","[4.074443823895807, 4.047917997412511]"
519,Cs2LiScCl6,"{'symprec': 0.1, 'source': 'spglib', 'symbol': 'R-3m', 'number': 166, 'point_group': '-3m', 'crystal_system': 'trigonal', 'hall': '-R 3 2""'}",mp-1189625,0.0,3.782200000000001,"['Cl', 'Cs', 'Li', 'Sc']",[4.189306843360902]
520,Cs2NaBiCl6,"{'symprec': 0.1, 'source': 'spglib', 'symbol': 'Fm-3m', 'number': 225, 'point_group': 'm-3m', 'crystal_system': 'cubic', 'hall': '-F 4 2 3'}",mp-1080041,0.0,3.7845,"['Bi', 'Cl', 'Cs', 'Na']",[4.103601466557032]
521,Rb2NaBiCl6,"{'symprec': 0.1, 'source': 'spglib', 'symbol': 'Fm-3m', 'number': 225, 'point_group': 'm-3m', 'crystal_system': 'cubic', 'hall': '-F 4 2 3'}",mp-989520,0.0,3.797,"['Bi', 'Cl', 'Na', 'Rb']",[4.529410193126941]
522,Cs2ErAgCl6,"{'symprec': 0.1, 'source': 'spglib', 'symbol': 'Fm-3m', 'number': 225, 'point_group': 'm-3m', 'crystal_system': 'cubic', 'hall': '-F 4 2 3'}",mp-1113595,0.0,3.8081,"['Ag', 'Cl', 'Cs', 'Er']",[4.082566255203214]
523,Rb2YTlBr6,"{'symprec': 0.1, 'source': 'spglib', 'symbol': 'Fm-3m', 'number': 225, 'point_group': 'm-3m', 'crystal_system': 'cubic', 'hall': '-F 4 2 3'}",mp-1114612,0.0183674329999998,3.8096,"['Br', 'Rb', 'Tl', 'Y']",[5.556315249997358]
524,Rb2YAgCl6,"{'symprec': 0.1, 'source': 'spglib', 'symbol': 'Fm-3m', 'number': 225, 'point_group': 'm-3m', 'crystal_system': 'cubic', 'hall': '-F 4 2 3'}",mp-1113700,0.0078286608999995,3.8124,"['Ag', 'Cl', 'Rb', 'Y']",[4.500285331052806]
525,Cs2DyAgCl6,"{'symprec': 0.1, 'source': 'spglib', 'symbol': 'Fm-3m', 'number': 225, 'point_group': 'm-3m', 'crystal_system': 'cubic', 'hall': '-F 4 2 3'}",mp-1113610,0.0,3.8325,"['Ag', 'Cl', 'Cs', 'Dy']","[4.102121891124065, 4.070263930888639]"
526,CsRb2InCl6,"{'symprec': 0.1, 'source': 'spglib', 'symbol': 'Fm-3m', 'number': 225, 'point_group': 'm-3m', 'crystal_system': 'cubic', 'hall': '-F 4 2 3'}",mp-1113607,0.0561261380000046,3.8355,"['Cl', 'Cs', 'In', 'Rb']",[5.36764527630021]
527,Cs2TbAgCl6,"{'symprec': 0.1, 'source': 'spglib', 'symbol': 'Fm-3m', 'number': 225, 'point_group': 'm-3m', 'crystal_system': 'cubic', 'hall': '-F 4 2 3'}",mp-1112937,0.0,3.8468,"['Ag', 'Cl', 'Cs', 'Tb']",[4.11276836057715]
528,Cs2NaLaBr6,"{'symprec': 0.1, 'source': 'spglib', 'symbol': 'Fm-3m', 'number': 225, 'point_group': 'm-3m', 'crystal_system': 'cubic', 'hall': '-F 4 2 3'}",mp-1079096,0.0065431379999991,3.8472,"['Br', 'Cs', 'La', 'Na']",[4.251493821473414]
529,Cs2PrAgCl6,"{'symprec': 0.1, 'source': 'spglib', 'symbol': 'Fm-3m', 'number': 225, 'point_group': 'm-3m', 'crystal_system': 'cubic', 'hall': '-F 4 2 3'}",mp-1113459,0.0072789435000033,3.8493,"['Ag', 'Cl', 'Cs', 'Pr']",[4.1901776676245985]
530,Cs2NdAgCl6,"{'symprec': 0.1, 'source': 'spglib', 'symbol': 'Fm-3m', 'number': 225, 'point_group': 'm-3m', 'crystal_system': 'cubic', 'hall': '-F 4 2 3'}",mp-1112945,0.0,3.8586,"['Ag', 'Cl', 'Cs', 'Nd']",[4.181073251540424]
531,Cs2SmAgCl6,"{'symprec': 0.1, 'source': 'spglib', 'symbol': 'Fm-3m', 'number': 225, 'point_group': 'm-3m', 'crystal_system': 'cubic', 'hall': '-F 4 2 3'}",mp-1112939,0.0,3.8839,"['Ag', 'Cl', 'Cs', 'Sm']",[4.150503031238438]
532,Rb2AlTlCl6,"{'symprec': 0.1, 'source': 'spglib', 'symbol': 'Fm-3m', 'number': 225, 'point_group': 'm-3m', 'crystal_system': 'cubic', 'hall': '-F 4 2 3'}",mp-1114467,0.0612402020000004,3.8855,"['Al', 'Cl', 'Rb', 'Tl']",[4.2296637960044325]
533,Cs2YAgCl6,"{'symprec': 0.1, 'source': 'spglib', 'symbol': 'Fm-3m', 'number': 225, 'point_group': 'm-3m', 'crystal_system': 'cubic', 'hall': '-F 4 2 3'}",mp-1113432,0.0,3.905,"['Ag', 'Cl', 'Cs', 'Y']",[4.091167958387177]
534,Cs2YTlBr6,"{'symprec': 0.1, 'source': 'spglib', 'symbol': 'Fm-3m', 'number': 225, 'point_group': 'm-3m', 'crystal_system': 'cubic', 'hall': '-F 4 2 3'}",mp-1112106,0.0068883694999994,3.9156,"['Br', 'Cs', 'Tl', 'Y']",[4.648919102166114]
535,Cs2AlTlCl6,"{'symprec': 0.1, 'source': 'spglib', 'symbol': 'Fm-3m', 'number': 225, 'point_group': 'm-3m', 'crystal_system': 'cubic', 'hall': '-F 4 2 3'}",mp-1112505,0.0407678682500001,3.9489,"['Al', 'Cl', 'Cs', 'Tl']",[4.013583374348323]
536,Rb2NaScCl6,"{'symprec': 0.1, 'source': 'spglib', 'symbol': 'Fm-3m', 'number': 225, 'point_group': 'm-3m', 'crystal_system': 'cubic', 'hall': '-F 4 2 3'}",mp-1114671,0.0,3.949,"['Cl', 'Na', 'Rb', 'Sc']",[4.2124845803101945]
537,Cs2NaScCl6,"{'symprec': 0.1, 'source': 'spglib', 'symbol': 'Fm-3m', 'number': 225, 'point_group': 'm-3m', 'crystal_system': 'cubic', 'hall': '-F 4 2 3'}",mp-1111988,0.0,3.9499,"['Cl', 'Cs', 'Na', 'Sc']",[4.023163804682872]
538,Cs2LiPrBr6,"{'symprec': 0.1, 'source': 'spglib', 'symbol': 'Fm-3m', 'number': 225, 'point_group': 'm-3m', 'crystal_system': 'cubic', 'hall': '-F 4 2 3'}",mp-1112675,0.0,3.9651,"['Br', 'Cs', 'Li', 'Pr']",[4.1986454217242475]
539,Rb2LiPrBr6,"{'symprec': 0.1, 'source': 'spglib', 'symbol': 'Fm-3m', 'number': 225, 'point_group': 'm-3m', 'crystal_system': 'cubic', 'hall': '-F 4 2 3'}",mp-1114572,0.0390564272500006,3.9872,"['Br', 'Li', 'Pr', 'Rb']",[4.383463752140917]
540,Cs2LiNdBr6,"{'symprec': 0.1, 'source': 'spglib', 'symbol': 'Fm-3m', 'number': 225, 'point_group': 'm-3m', 'crystal_system': 'cubic', 'hall': '-F 4 2 3'}",mp-1112679,0.0,3.9914,"['Br', 'Cs', 'Li', 'Nd']",[4.201233822498899]
541,Rb2LiNdBr6,"{'symprec': 0.1, 'source': 'spglib', 'symbol': 'Fm-3m', 'number': 225, 'point_group': 'm-3m', 'crystal_system': 'cubic', 'hall': '-F 4 2 3'}",mp-1114570,0.0333525640000003,4.0028,"['Br', 'Li', 'Nd', 'Rb']",[4.382894369334364]
542,Rb2LiYBr6,"{'symprec': 0.1, 'source': 'spglib', 'symbol': 'Fm-3m', 'number': 225, 'point_group': 'm-3m', 'crystal_system': 'cubic', 'hall': '-F 4 2 3'}",mp-1114582,0.0,4.0385,"['Br', 'Li', 'Rb', 'Y']",[4.389681955674366]
543,Rb2NaPrBr6,"{'symprec': 0.1, 'source': 'spglib', 'symbol': 'Fm-3m', 'number': 225, 'point_group': 'm-3m', 'crystal_system': 'cubic', 'hall': '-F 4 2 3'}",mp-1114594,0.0382683397500009,4.0479,"['Br', 'Na', 'Pr', 'Rb']",[4.605568325072091]
544,Cs2LiYBr6,"{'symprec': 0.1, 'source': 'spglib', 'symbol': 'Fm-3m', 'number': 225, 'point_group': 'm-3m', 'crystal_system': 'cubic', 'hall': '-F 4 2 3'}",mp-1112666,0.0,4.0535,"['Br', 'Cs', 'Li', 'Y']",[4.243345937199448]
545,Rb2NaNdBr6,"{'symprec': 0.1, 'source': 'spglib', 'symbol': 'Fm-3m', 'number': 225, 'point_group': 'm-3m', 'crystal_system': 'cubic', 'hall': '-F 4 2 3'}",mp-1114592,0.0323178794999998,4.0601,"['Br', 'Na', 'Nd', 'Rb']",[4.594311476354124]
546,Cs2KScCl6,"{'symprec': 0.1, 'source': 'spglib', 'symbol': 'Fm-3m', 'number': 225, 'point_group': 'm-3m', 'crystal_system': 'cubic', 'hall': '-F 4 2 3'}",mp-571124,0.0,4.0621,"['Cs', 'K', 'Sc', 'Cl']",[4.085949462964278]
547,Cs2KBiCl6,"{'symprec': 0.1, 'source': 'spglib', 'symbol': 'Fm-3m', 'number': 225, 'point_group': 'm-3m', 'crystal_system': 'cubic', 'hall': '-F 4 2 3'}",mp-1112786,0.0111666988750016,4.0624,"['Bi', 'Cl', 'Cs', 'K']",[4.67464554268042]
548,KRb2ScCl6,"{'symprec': 0.1, 'source': 'spglib', 'symbol': 'Fm-3m', 'number': 225, 'point_group': 'm-3m', 'crystal_system': 'cubic', 'hall': '-F 4 2 3'}",mp-1114410,0.0,4.0632,"['Cl', 'K', 'Rb', 'Sc']",[4.487868429169957]
549,Cs2RbScCl6,"{'symprec': 0.1, 'source': 'spglib', 'symbol': 'Fm-3m', 'number': 225, 'point_group': 'm-3m', 'crystal_system': 'cubic', 'hall': '-F 4 2 3'}",mp-1112120,0.0059173800000102,4.088,"['Cl', 'Cs', 'Rb', 'Sc']",[5.025920190145202]
550,Cs2NaAlCl6,"{'symprec': 0.1, 'source': 'spglib', 'symbol': 'Fm-3m', 'number': 225, 'point_group': 'm-3m', 'crystal_system': 'cubic', 'hall': '-F 4 2 3'}",mp-1112997,0.0363450222500012,4.128699999999999,"['Al', 'Cl', 'Cs', 'Na']",[4.221776571974987]
551,CsRb2ScCl6,"{'symprec': 0.1, 'source': 'spglib', 'symbol': 'Fm-3m', 'number': 225, 'point_group': 'm-3m', 'crystal_system': 'cubic', 'hall': '-F 4 2 3'}",mp-1113402,0.0574664476666741,4.1402,"['Cl', 'Cs', 'Rb', 'Sc']",[5.025920190145202]
552,Cs2RbBiCl6,"{'symprec': 0.1, 'source': 'spglib', 'symbol': 'Fm-3m', 'number': 225, 'point_group': 'm-3m', 'crystal_system': 'cubic', 'hall': '-F 4 2 3'}",mp-1112129,0.0179265483333321,4.1439,"['Bi', 'Cl', 'Cs', 'Rb']",[8.236378572604035]
553,Cs2NaPrBr6,"{'symprec': 0.1, 'source': 'spglib', 'symbol': 'Fm-3m', 'number': 225, 'point_group': 'm-3m', 'crystal_system': 'cubic', 'hall': '-F 4 2 3'}",mp-1112146,0.0,4.1445,"['Br', 'Cs', 'Na', 'Pr']",[4.222215009913294]
554,Cs2NaNdBr6,"{'symprec': 0.1, 'source': 'spglib', 'symbol': 'Fm-3m', 'number': 225, 'point_group': 'm-3m', 'crystal_system': 'cubic', 'hall': '-F 4 2 3'}",mp-1112145,0.0,4.1567,"['Br', 'Cs', 'Na', 'Nd']",[4.218001215080638]
555,Cs2RbYBr6,"{'symprec': 0.1, 'source': 'spglib', 'symbol': 'Fm-3m', 'number': 225, 'point_group': 'm-3m', 'crystal_system': 'cubic', 'hall': '-F 4 2 3'}",mp-1112113,0.011228876500001,4.1764,"['Br', 'Cs', 'Rb', 'Y']",[6.365981737318132]
556,Rb2YTlCl6,"{'symprec': 0.1, 'source': 'spglib', 'symbol': 'Fm-3m', 'number': 225, 'point_group': 'm-3m', 'crystal_system': 'cubic', 'hall': '-F 4 2 3'}",mp-1114613,0.0395249659000001,4.202500000000001,"['Cl', 'Rb', 'Tl', 'Y']",[5.427215805123777]
557,Rb2NaYBr6,"{'symprec': 0.1, 'source': 'spglib', 'symbol': 'Fm-3m', 'number': 225, 'point_group': 'm-3m', 'crystal_system': 'cubic', 'hall': '-F 4 2 3'}",mp-1114601,0.0,4.2307,"['Br', 'Na', 'Rb', 'Y']",[4.483307893110361]
558,Rb2LiDyBr6,"{'symprec': 0.1, 'source': 'spglib', 'symbol': 'Fm-3m', 'number': 225, 'point_group': 'm-3m', 'crystal_system': 'cubic', 'hall': '-F 4 2 3'}",mp-567628,0.0,4.2324,"['Br', 'Dy', 'Li', 'Rb']",[4.387108370733427]
559,Cs2KPrBr6,"{'symprec': 0.1, 'source': 'spglib', 'symbol': 'Fm-3m', 'number': 225, 'point_group': 'm-3m', 'crystal_system': 'cubic', 'hall': '-F 4 2 3'}",mp-1112754,0.0,4.2344,"['Br', 'Cs', 'K', 'Pr']",[4.681161781578247]
560,Cs2KNdBr6,"{'symprec': 0.1, 'source': 'spglib', 'symbol': 'Fm-3m', 'number': 225, 'point_group': 'm-3m', 'crystal_system': 'cubic', 'hall': '-F 4 2 3'}",mp-1112758,0.0,4.2401,"['Br', 'Cs', 'K', 'Nd']",[4.6617890347142295]
561,Rb2NaAlCl6,"{'symprec': 0.1, 'source': 'spglib', 'symbol': 'Fm-3m', 'number': 225, 'point_group': 'm-3m', 'crystal_system': 'cubic', 'hall': '-F 4 2 3'}",mp-1114433,0.0357204730000004,4.2429,"['Al', 'Cl', 'Na', 'Rb']",[4.301863357072378]
562,Cs2NaYBr6,"{'symprec': 0.1, 'source': 'spglib', 'symbol': 'Fm-3m', 'number': 225, 'point_group': 'm-3m', 'crystal_system': 'cubic', 'hall': '-F 4 2 3'}",mp-571467,0.0,4.2492,"['Cs', 'Na', 'Y', 'Br']",[4.182784230673857]
563,Cs2KYBr6,"{'symprec': 0.1, 'source': 'spglib', 'symbol': 'Fm-3m', 'number': 225, 'point_group': 'm-3m', 'crystal_system': 'cubic', 'hall': '-F 4 2 3'}",mp-1113028,0.0,4.2875,"['Br', 'Cs', 'K', 'Y']",[4.4636254166929445]
564,Cs2YTlCl6,"{'symprec': 0.1, 'source': 'spglib', 'symbol': 'Fm-3m', 'number': 225, 'point_group': 'm-3m', 'crystal_system': 'cubic', 'hall': '-F 4 2 3'}",mp-1112103,0.0064389957500008,4.3479,"['Cl', 'Cs', 'Tl', 'Y']",[4.519819657292533]
565,CsRb2TbCl6,"{'symprec': 0.1, 'source': 'spglib', 'symbol': 'Fm-3m', 'number': 225, 'point_group': 'm-3m', 'crystal_system': 'cubic', 'hall': '-F 4 2 3'}",mp-1113351,0.0791914510000002,4.4297,"['Cl', 'Cs', 'Rb', 'Tb']",[6.5078882388444645]
566,CsRb2DyCl6,"{'symprec': 0.1, 'source': 'spglib', 'symbol': 'Fm-3m', 'number': 225, 'point_group': 'm-3m', 'crystal_system': 'cubic', 'hall': '-F 4 2 3'}",mp-1113428,0.0816810187499985,4.4358,"['Cl', 'Cs', 'Dy', 'Rb']",[6.377918563046702]
567,CsRb2ErCl6,"{'symprec': 0.1, 'source': 'spglib', 'symbol': 'Fm-3m', 'number': 225, 'point_group': 'm-3m', 'crystal_system': 'cubic', 'hall': '-F 4 2 3'}",mp-1113406,0.0858993271666639,4.4368,"['Cl', 'Cs', 'Er', 'Rb']",[6.1373148125705805]
568,CsRb2YCl6,"{'symprec': 0.1, 'source': 'spglib', 'symbol': 'Fm-3m', 'number': 225, 'point_group': 'm-3m', 'crystal_system': 'cubic', 'hall': '-F 4 2 3'}",mp-1113327,0.0824989947499981,4.4399,"['Cl', 'Cs', 'Rb', 'Y']",[6.2436295412600336]
569,CsRb2TmCl6,"{'symprec': 0.1, 'source': 'spglib', 'symbol': 'Fm-3m', 'number': 225, 'point_group': 'm-3m', 'crystal_system': 'cubic', 'hall': '-F 4 2 3'}",mp-1113352,0.0790669487499982,4.4458,"['Cl', 'Cs', 'Rb', 'Tm']",[6.03577679048705]
570,CsRb2LuCl6,"{'symprec': 0.1, 'source': 'spglib', 'symbol': 'Fm-3m', 'number': 225, 'point_group': 'm-3m', 'crystal_system': 'cubic', 'hall': '-F 4 2 3'}",mp-1113391,0.0759814509999996,4.452500000000001,"['Cl', 'Cs', 'Lu', 'Rb']",[5.855084763677544]
571,Cs2LiLaCl6,"{'symprec': 0.1, 'source': 'spglib', 'symbol': 'Fm-3m', 'number': 225, 'point_group': 'm-3m', 'crystal_system': 'cubic', 'hall': '-F 4 2 3'}",mp-1112681,0.0169060420000013,4.4672,"['Cl', 'Cs', 'La', 'Li']",[4.016668217492301]
572,Rb2LiLaCl6,"{'symprec': 0.1, 'source': 'spglib', 'symbol': 'Fm-3m', 'number': 225, 'point_group': 'm-3m', 'crystal_system': 'cubic', 'hall': '-F 4 2 3'}",mp-1114567,0.0422834457500007,4.504,"['Cl', 'La', 'Li', 'Rb']",[4.221074572579939]
573,Cs2NaLaCl6,"{'symprec': 0.1, 'source': 'spglib', 'symbol': 'Fm-3m', 'number': 225, 'point_group': 'm-3m', 'crystal_system': 'cubic', 'hall': '-F 4 2 3'}",mp-1080017,0.0038075360000009,4.6384,"['Cl', 'Cs', 'La', 'Na']",[4.1052924911054305]
574,Cs2KAlCl6,"{'symprec': 0.1, 'source': 'spglib', 'symbol': 'Fm-3m', 'number': 225, 'point_group': 'm-3m', 'crystal_system': 'cubic', 'hall': '-F 4 2 3'}",mp-1113059,0.033297902250001,4.6578,"['Al', 'Cl', 'Cs', 'K']",[4.0312480065254235]
575,Rb2NaLaCl6,"{'symprec': 0.1, 'source': 'spglib', 'symbol': 'Fm-3m', 'number': 225, 'point_group': 'm-3m', 'crystal_system': 'cubic', 'hall': '-F 4 2 3'}",mp-1114443,0.0388532997500004,4.6622,"['Cl', 'La', 'Na', 'Rb']",[4.53332771132615]
576,KRb2AlCl6,"{'symprec': 0.1, 'source': 'spglib', 'symbol': 'Fm-3m', 'number': 225, 'point_group': 'm-3m', 'crystal_system': 'cubic', 'hall': '-F 4 2 3'}",mp-1114653,0.0494014919999989,4.6728,"['Al', 'Cl', 'K', 'Rb']",[4.20776096048632]
577,Cs2RbAlCl6,"{'symprec': 0.1, 'source': 'spglib', 'symbol': 'Fm-3m', 'number': 225, 'point_group': 'm-3m', 'crystal_system': 'cubic', 'hall': '-F 4 2 3'}",mp-1112525,0.0424879002500007,4.6799,"['Al', 'Cl', 'Cs', 'Rb']",[4.300021280539378]
578,Cs2KLaCl6,"{'symprec': 0.1, 'source': 'spglib', 'symbol': 'Fm-3m', 'number': 225, 'point_group': 'm-3m', 'crystal_system': 'cubic', 'hall': '-F 4 2 3'}",mp-1113044,0.0182125140000026,4.7276,"['Cl', 'Cs', 'K', 'La']",[4.681129908241068]
579,KRb2LaCl6,"{'symprec': 0.1, 'source': 'spglib', 'symbol': 'Fm-3m', 'number': 225, 'point_group': 'm-3m', 'crystal_system': 'cubic', 'hall': '-F 4 2 3'}",mp-1114405,0.0630385817499998,4.7632,"['Cl', 'K', 'La', 'Rb']",[5.781642353839581]