,pretty_formula,spacegroup,material_id,e_above_hull,band_gap,elements,tolerance
164,Cs2LiTlBr6,"{'symprec': 0.1, 'source': 'spglib', 'symbol': 'Fm-3m', 'number': 225, 'point_group': 'm-3m', 'crystal_system': 'cubic', 'hall': '-F 4 2 3'}",mp-1112670,0.0205261647499992,0.5547,"['Br', 'Cs', 'Li', 'Tl']",[4.253351423504329]
165,Rb2InSbI6,"{'symprec': 0.1, 'source': 'spglib', 'symbol': 'Fm-3m', 'number': 225, 'point_group': 'm-3m', 'crystal_system': 'cubic', 'hall': '-F 4 2 3'}",mp-1114392,0.0657997855000012,0.5548000000000002,"['I', 'In', 'Rb', 'Sb']",[]
166,Cs2BiAuI6,"{'symprec': 0.1, 'source': 'spglib', 'symbol': 'Fm-3m', 'number': 225, 'point_group': 'm-3m', 'crystal_system': 'cubic', 'hall': '-F 4 2 3'}",mp-1113421,0.0658377314999989,0.5611000000000002,"['Au', 'Bi', 'Cs', 'I']",[4.979096731530054]
167,Cs2InBiI6,"{'symprec': 0.1, 'source': 'spglib', 'symbol': 'Fm-3m', 'number': 225, 'point_group': 'm-3m', 'crystal_system': 'cubic', 'hall': '-F 4 2 3'}",mp-1112890,0.0073781945000006,0.5806999999999998,"['Bi', 'Cs', 'I', 'In']",[]
168,Cs2AgMoBr6,"{'symprec': 0.1, 'source': 'spglib', 'symbol': 'Fm-3m', 'number': 225, 'point_group': 'm-3m', 'crystal_system': 'cubic', 'hall': '-F 4 2 3'}",mp-1113557,0.0513431993749957,0.5811,"['Ag', 'Br', 'Cs', 'Mo']",[4.183317964573966]
169,Cs2InSbI6,"{'symprec': 0.1, 'source': 'spglib', 'symbol': 'Fm-3m', 'number': 225, 'point_group': 'm-3m', 'crystal_system': 'cubic', 'hall': '-F 4 2 3'}",mp-1113283,0.0336700429166678,0.6012,"['Cs', 'I', 'In', 'Sb']",[]
170,Rb2InAsBr6,"{'symprec': 0.1, 'source': 'spglib', 'symbol': 'Fm-3m', 'number': 225, 'point_group': 'm-3m', 'crystal_system': 'cubic', 'hall': '-F 4 2 3'}",mp-1110632,0.0648329001666665,0.6416999999999999,"['As', 'Br', 'In', 'Rb']",[]
171,Rb2NaInI6,"{'symprec': 0.1, 'source': 'spglib', 'symbol': 'Fm-3m', 'number': 225, 'point_group': 'm-3m', 'crystal_system': 'cubic', 'hall': '-F 4 2 3'}",mp-1114591,0.0769626816666666,0.6782,"['I', 'In', 'Na', 'Rb']",[4.668973557223222]
172,Rb2AgMoBr6,"{'symprec': 0.1, 'source': 'spglib', 'symbol': 'Fm-3m', 'number': 225, 'point_group': 'm-3m', 'crystal_system': 'cubic', 'hall': '-F 4 2 3'}",mp-1113728,0.0610156112499953,0.6979,"['Ag', 'Br', 'Mo', 'Rb']",[4.393570357786793]
173,Cs2NaInI6,"{'symprec': 0.1, 'source': 'spglib', 'symbol': 'Fm-3m', 'number': 225, 'point_group': 'm-3m', 'crystal_system': 'cubic', 'hall': '-F 4 2 3'}",mp-1112149,0.0452853167499998,0.6986999999999999,"['Cs', 'I', 'In', 'Na']",[4.443966335805399]
174,Rb2InSbBr6,"{'symprec': 0.1, 'source': 'spglib', 'symbol': 'Fm-3m', 'number': 225, 'point_group': 'm-3m', 'crystal_system': 'cubic', 'hall': '-F 4 2 3'}",mp-1114390,0.0344552870833343,0.7026000000000001,"['Br', 'In', 'Rb', 'Sb']",[]
175,Cs2InAsBr6,"{'symprec': 0.1, 'source': 'spglib', 'symbol': 'Fm-3m', 'number': 225, 'point_group': 'm-3m', 'crystal_system': 'cubic', 'hall': '-F 4 2 3'}",mp-1112893,0.0288411728333324,0.7400999999999998,"['As', 'Br', 'Cs', 'In']",[]
176,Cs2CuSbI6,"{'symprec': 0.1, 'source': 'spglib', 'symbol': 'Fm-3m', 'number': 225, 'point_group': 'm-3m', 'crystal_system': 'cubic', 'hall': '-F 4 2 3'}",mp-1113353,0.0596531167500011,0.7475999999999998,"['Cs', 'Cu', 'I', 'Sb']",[4.672067546391677]
177,Rb2CuSbI6,"{'symprec': 0.1, 'source': 'spglib', 'symbol': 'Fm-3m', 'number': 225, 'point_group': 'm-3m', 'crystal_system': 'cubic', 'hall': '-F 4 2 3'}",mp-1112429,0.0678208590000006,0.754,"['Cu', 'I', 'Rb', 'Sb']",[4.769758858056944]
178,Cs2AgAuCl6,"{'symprec': 0.1, 'source': 'spglib', 'symbol': 'I4/mmm', 'number': 139, 'point_group': '4/mmm', 'crystal_system': 'tetragonal', 'hall': '-I 4 2'}",mp-567776,0.0,0.7578,"['Ag', 'Au', 'Cl', 'Cs']","[4.052963303473508, 4.085503828041103]"
179,Cs2InSbBr6,"{'symprec': 0.1, 'source': 'spglib', 'symbol': 'Fm-3m', 'number': 225, 'point_group': 'm-3m', 'crystal_system': 'cubic', 'hall': '-F 4 2 3'}",mp-1113094,0.0208418451666685,0.7683000000000002,"['Br', 'Cs', 'In', 'Sb']",[]
180,Cs2CuBiI6,"{'symprec': 0.1, 'source': 'spglib', 'symbol': 'Fm-3m', 'number': 225, 'point_group': 'm-3m', 'crystal_system': 'cubic', 'hall': '-F 4 2 3'}",mp-1113364,0.0619039107499999,0.8132000000000001,"['Bi', 'Cs', 'Cu', 'I']",[4.452921312424027]
181,Rb2CuBiI6,"{'symprec': 0.1, 'source': 'spglib', 'symbol': 'Fm-3m', 'number': 225, 'point_group': 'm-3m', 'crystal_system': 'cubic', 'hall': '-F 4 2 3'}",mp-1113596,0.073598624000001,0.8400000000000003,"['Bi', 'Cu', 'I', 'Rb']",[4.662916920663766]
182,Cs2InBiBr6,"{'symprec': 0.1, 'source': 'spglib', 'symbol': 'Fm-3m', 'number': 225, 'point_group': 'm-3m', 'crystal_system': 'cubic', 'hall': '-F 4 2 3'}",mp-1112892,0.0017822600000019,0.8480000000000003,"['Bi', 'Br', 'Cs', 'In']",[]
183,Rb2TlSbI6,"{'symprec': 0.1, 'source': 'spglib', 'symbol': 'Fm-3m', 'number': 225, 'point_group': 'm-3m', 'crystal_system': 'cubic', 'hall': '-F 4 2 3'}",mp-1114610,0.0504259535000013,0.8695999999999999,"['I', 'Rb', 'Sb', 'Tl']",[5.091139225298208]
184,Cs2CuAsCl6,"{'symprec': 0.1, 'source': 'spglib', 'symbol': 'Fm-3m', 'number': 225, 'point_group': 'm-3m', 'crystal_system': 'cubic', 'hall': '-F 4 2 3'}",mp-1112612,0.0516290987499994,0.8879000000000001,"['As', 'Cl', 'Cs', 'Cu']",[4.436936908511074]
185,Cs2CuBiBr6,"{'symprec': 0.1, 'source': 'spglib', 'symbol': 'Fm-3m', 'number': 225, 'point_group': 'm-3m', 'crystal_system': 'cubic', 'hall': '-F 4 2 3'}",mp-1112915,0.0309883589999975,0.8916999999999999,"['Bi', 'Br', 'Cs', 'Cu']",[4.183428450322838]
186,Rb2InGaI6,"{'symprec': 0.1, 'source': 'spglib', 'symbol': 'Fm-3m', 'number': 225, 'point_group': 'm-3m', 'crystal_system': 'cubic', 'hall': '-F 4 2 3'}",mp-1114524,0.0503406115000006,0.8965999999999998,"['Ga', 'I', 'In', 'Rb']",[]
187,Rb2CuBiBr6,"{'symprec': 0.1, 'source': 'spglib', 'symbol': 'Fm-3m', 'number': 225, 'point_group': 'm-3m', 'crystal_system': 'cubic', 'hall': '-F 4 2 3'}",mp-1113310,0.0432560911249972,0.9088,"['Bi', 'Br', 'Cu', 'Rb']",[4.393424058562577]
188,Rb2TlAsI6,"{'symprec': 0.1, 'source': 'spglib', 'symbol': 'Fm-3m', 'number': 225, 'point_group': 'm-3m', 'crystal_system': 'cubic', 'hall': '-F 4 2 3'}",mp-1114605,0.0347680800000005,0.9093999999999998,"['As', 'I', 'Rb', 'Tl']",[4.695680148501182]
189,Cs2InGaI6,"{'symprec': 0.1, 'source': 'spglib', 'symbol': 'Fm-3m', 'number': 225, 'point_group': 'm-3m', 'crystal_system': 'cubic', 'hall': '-F 4 2 3'}",mp-1113095,0.0188371053125004,0.9168000000000004,"['Cs', 'Ga', 'I', 'In']",[]
190,Cs2TlSbI6,"{'symprec': 0.1, 'source': 'spglib', 'symbol': 'Fm-3m', 'number': 225, 'point_group': 'm-3m', 'crystal_system': 'cubic', 'hall': '-F 4 2 3'}",mp-1112105,0.0234411615000009,0.9276,"['Cs', 'I', 'Sb', 'Tl']",[4.5571690975152706]
191,Rb2CuMoCl6,"{'symprec': 0.1, 'source': 'spglib', 'symbol': 'Fm-3m', 'number': 225, 'point_group': 'm-3m', 'crystal_system': 'cubic', 'hall': '-F 4 2 3'}",mp-1113298,0.0453076794166666,0.9331999999999998,"['Cl', 'Cu', 'Mo', 'Rb']",[4.320650319859803]
192,Rb2CuSbCl6,"{'symprec': 0.1, 'source': 'spglib', 'symbol': 'Fm-3m', 'number': 225, 'point_group': 'm-3m', 'crystal_system': 'cubic', 'hall': '-F 4 2 3'}",mp-1113559,0.0,0.9345999999999997,"['Cl', 'Cu', 'Rb', 'Sb']",[4.259944047081342]
193,Cs2CuSbCl6,"{'symprec': 0.1, 'source': 'spglib', 'symbol': 'Fm-3m', 'number': 225, 'point_group': 'm-3m', 'crystal_system': 'cubic', 'hall': '-F 4 2 3'}",mp-1112956,0.03641922075,0.9493,"['Cl', 'Cs', 'Cu', 'Sb']",[4.162252735416075]
194,Cs2RbGaI6,"{'symprec': 0.1, 'source': 'spglib', 'symbol': 'Fm-3m', 'number': 225, 'point_group': 'm-3m', 'crystal_system': 'cubic', 'hall': '-F 4 2 3'}",mp-1112155,0.0843609842500003,0.9795,"['Cs', 'Ga', 'I', 'Rb']",[4.884288881472259]
195,Cs2AgMoCl6,"{'symprec': 0.1, 'source': 'spglib', 'symbol': 'Fm-3m', 'number': 225, 'point_group': 'm-3m', 'crystal_system': 'cubic', 'hall': '-F 4 2 3'}",mp-1113480,0.0434758626666647,0.9802000000000002,"['Ag', 'Cl', 'Cs', 'Mo']",[4.0149273843040785]
196,Cs2TlAsI6,"{'symprec': 0.1, 'source': 'spglib', 'symbol': 'Fm-3m', 'number': 225, 'point_group': 'm-3m', 'crystal_system': 'cubic', 'hall': '-F 4 2 3'}",mp-1112544,0.0,0.9989,"['As', 'Cs', 'I', 'Tl']",[4.432582864388654]
197,Rb2BiAuCl6,"{'symprec': 0.1, 'source': 'spglib', 'symbol': 'Fm-3m', 'number': 225, 'point_group': 'm-3m', 'crystal_system': 'cubic', 'hall': '-F 4 2 3'}",mp-1113667,0.0392796879666663,0.999,"['Au', 'Bi', 'Cl', 'Rb']",[5.7141234861647865]
198,Cs2BiAuCl6,"{'symprec': 0.1, 'source': 'spglib', 'symbol': 'Fm-3m', 'number': 225, 'point_group': 'm-3m', 'crystal_system': 'cubic', 'hall': '-F 4 2 3'}",mp-1113443,0.0813434814999998,1.0125,"['Au', 'Bi', 'Cl', 'Cs']",[4.650785522002899]
199,Cs2NaTlBr6,"{'symprec': 0.1, 'source': 'spglib', 'symbol': 'Fm-3m', 'number': 225, 'point_group': 'm-3m', 'crystal_system': 'cubic', 'hall': '-F 4 2 3'}",mp-1112138,0.0094572822499992,1.0215,"['Br', 'Cs', 'Na', 'Tl']",[4.179384798683826]
200,Rb2AgMoCl6,"{'symprec': 0.1, 'source': 'spglib', 'symbol': 'Fm-3m', 'number': 225, 'point_group': 'm-3m', 'crystal_system': 'cubic', 'hall': '-F 4 2 3'}",mp-1113717,0.0,1.0255999999999998,"['Ag', 'Cl', 'Mo', 'Rb']",[4.225179777516905]
201,Rb2NaTlBr6,"{'symprec': 0.1, 'source': 'spglib', 'symbol': 'Fm-3m', 'number': 225, 'point_group': 'm-3m', 'crystal_system': 'cubic', 'hall': '-F 4 2 3'}",mp-1114462,0.0057106971250004,1.0394,"['Br', 'Na', 'Rb', 'Tl']",[4.467583781271845]
202,Rb2AgSbI6,"{'symprec': 0.1, 'source': 'spglib', 'symbol': 'Fm-3m', 'number': 225, 'point_group': 'm-3m', 'crystal_system': 'cubic', 'hall': '-F 4 2 3'}",mp-1113723,0.0445492861249992,1.0960000000000003,"['Ag', 'I', 'Rb', 'Sb']",[4.698342457818434]
203,Cs2AgSbI6,"{'symprec': 0.1, 'source': 'spglib', 'symbol': 'Fm-3m', 'number': 225, 'point_group': 'm-3m', 'crystal_system': 'cubic', 'hall': '-F 4 2 3'}",mp-1112941,0.0278254623124993,1.0984999999999998,"['Ag', 'Cs', 'I', 'Sb']",[4.43226158155592]
204,Rb2AgAsBr6,"{'symprec': 0.1, 'source': 'spglib', 'symbol': 'Fm-3m', 'number': 225, 'point_group': 'm-3m', 'crystal_system': 'cubic', 'hall': '-F 4 2 3'}",mp-1113437,0.0009702370000019,1.1006999999999998,"['Ag', 'As', 'Br', 'Rb']",[4.395985196233921]
205,Cs2TlGaI6,"{'symprec': 0.1, 'source': 'spglib', 'symbol': 'Fm-3m', 'number': 225, 'point_group': 'm-3m', 'crystal_system': 'cubic', 'hall': '-F 4 2 3'}",mp-1112110,0.0776975389999998,1.1177,"['Cs', 'Ga', 'I', 'Tl']",[4.434965250517027]
206,Cs2ScAuI6,"{'symprec': 0.1, 'source': 'spglib', 'symbol': 'Fm-3m', 'number': 225, 'point_group': 'm-3m', 'crystal_system': 'cubic', 'hall': '-F 4 2 3'}",mp-1112923,0.0489799174999991,1.1227,"['Au', 'Cs', 'I', 'Sc']",[4.4665431654341905]
207,Cs2AgAsBr6,"{'symprec': 0.1, 'source': 'spglib', 'symbol': 'Fm-3m', 'number': 225, 'point_group': 'm-3m', 'crystal_system': 'cubic', 'hall': '-F 4 2 3'}",mp-1113578,0.0,1.1321,"['Ag', 'As', 'Br', 'Cs']",[4.258553688944396]
208,Rb2TlAsBr6,"{'symprec': 0.1, 'source': 'spglib', 'symbol': 'Fm-3m', 'number': 225, 'point_group': 'm-3m', 'crystal_system': 'cubic', 'hall': '-F 4 2 3'}",mp-1114604,0.0104804294999998,1.1354,"['As', 'Br', 'Rb', 'Tl']",[4.438373140140111]
209,Rb2CuBiCl6,"{'symprec': 0.1, 'source': 'spglib', 'symbol': 'Fm-3m', 'number': 225, 'point_group': 'm-3m', 'crystal_system': 'cubic', 'hall': '-F 4 2 3'}",mp-1113342,0.0,1.142,"['Bi', 'Cl', 'Cu', 'Rb']",[4.224991019749335]
210,Rb2ScAuI6,"{'symprec': 0.1, 'source': 'spglib', 'symbol': 'Fm-3m', 'number': 225, 'point_group': 'm-3m', 'crystal_system': 'cubic', 'hall': '-F 4 2 3'}",mp-1113639,0.0728444442499993,1.1491,"['Au', 'I', 'Rb', 'Sc']",[4.8608131289920635]
211,Cs2CuBiCl6,"{'symprec': 0.1, 'source': 'spglib', 'symbol': 'Fm-3m', 'number': 225, 'point_group': 'm-3m', 'crystal_system': 'cubic', 'hall': '-F 4 2 3'}",mp-1113377,0.0243798452499972,1.1557,"['Bi', 'Cl', 'Cs', 'Cu']",[4.014995411509596]
212,Rb2TlSbBr6,"{'symprec': 0.1, 'source': 'spglib', 'symbol': 'Fm-3m', 'number': 225, 'point_group': 'm-3m', 'crystal_system': 'cubic', 'hall': '-F 4 2 3'}",mp-1114608,0.0403066382499996,1.1568999999999998,"['Br', 'Rb', 'Sb', 'Tl']",[4.866358630518601]
213,Rb2InGaBr6,"{'symprec': 0.1, 'source': 'spglib', 'symbol': 'Fm-3m', 'number': 225, 'point_group': 'm-3m', 'crystal_system': 'cubic', 'hall': '-F 4 2 3'}",mp-1114649,0.0502990049999989,1.1626,"['Br', 'Ga', 'In', 'Rb']",[]
214,Cs2IBrCl6,"{'symprec': 0.1, 'source': 'spglib', 'symbol': 'Fm-3m', 'number': 225, 'point_group': 'm-3m', 'crystal_system': 'cubic', 'hall': '-F 4 2 3'}",mp-992141,0.0228638770000002,1.1674000000000002,"['Br', 'Cl', 'Cs', 'I']",[]
215,Rb2AgSbBr6,"{'symprec': 0.1, 'source': 'spglib', 'symbol': 'Fm-3m', 'number': 225, 'point_group': 'm-3m', 'crystal_system': 'cubic', 'hall': '-F 4 2 3'}",mp-1113722,0.0208089078749988,1.1770999999999998,"['Ag', 'Br', 'Rb', 'Sb']",[4.4416249279140985]
216,Cs2AgSbBr6,"{'symprec': 0.1, 'source': 'spglib', 'symbol': 'Fm-3m', 'number': 225, 'point_group': 'm-3m', 'crystal_system': 'cubic', 'hall': '-F 4 2 3'}",mp-1112943,0.0075474861875002,1.2018,"['Ag', 'Br', 'Cs', 'Sb']",[4.175544051651586]
217,Cs2BrCl6F,"{'symprec': 0.1, 'source': 'spglib', 'symbol': 'Fm-3m', 'number': 225, 'point_group': 'm-3m', 'crystal_system': 'cubic', 'hall': '-F 4 2 3'}",mp-989543,0.0,1.2145,"['Br', 'Cl', 'Cs', 'F']",[]
218,Cs2TlSbBr6,"{'symprec': 0.1, 'source': 'spglib', 'symbol': 'Fm-3m', 'number': 225, 'point_group': 'm-3m', 'crystal_system': 'cubic', 'hall': '-F 4 2 3'}",mp-1112108,0.0135042370000011,1.2264,"['Br', 'Cs', 'Sb', 'Tl']",[4.332388502735665]
219,Cs2TlAsBr6,"{'symprec': 0.1, 'source': 'spglib', 'symbol': 'Fm-3m', 'number': 225, 'point_group': 'm-3m', 'crystal_system': 'cubic', 'hall': '-F 4 2 3'}",mp-1112112,0.0,1.2309,"['As', 'Br', 'Cs', 'Tl']",[4.175275856027582]
220,Rb2InAsCl6,"{'symprec': 0.1, 'source': 'spglib', 'symbol': 'Fm-3m', 'number': 225, 'point_group': 'm-3m', 'crystal_system': 'cubic', 'hall': '-F 4 2 3'}",mp-1114648,0.0713098309166668,1.2379999999999998,"['As', 'Cl', 'In', 'Rb']",[]
221,Rb2BrCl6F,"{'symprec': 0.1, 'source': 'spglib', 'symbol': 'Fm-3m', 'number': 225, 'point_group': 'm-3m', 'crystal_system': 'cubic', 'hall': '-F 4 2 3'}",mp-989573,0.0,1.239,"['Rb', 'Br', 'Cl', 'F']",[]
222,Rb2GaAgCl6,"{'symprec': 0.1, 'source': 'spglib', 'symbol': 'Fm-3m', 'number': 225, 'point_group': 'm-3m', 'crystal_system': 'cubic', 'hall': '-F 4 2 3'}",mp-1113785,0.0618707469999972,1.2397,"['Ag', 'Cl', 'Ga', 'Rb']",[4.205756372291236]
223,Cs2YAuI6,"{'symprec': 0.1, 'source': 'spglib', 'symbol': 'Fm-3m', 'number': 225, 'point_group': 'm-3m', 'crystal_system': 'cubic', 'hall': '-F 4 2 3'}",mp-1112916,0.0777839974999992,1.2458000000000002,"['Au', 'Cs', 'I', 'Y']",[4.6665336522624585]
224,Cs2InGaBr6,"{'symprec': 0.1, 'source': 'spglib', 'symbol': 'Fm-3m', 'number': 225, 'point_group': 'm-3m', 'crystal_system': 'cubic', 'hall': '-F 4 2 3'}",mp-1112627,0.0324439462499985,1.2639,"['Br', 'Cs', 'Ga', 'In']",[]
225,KRb2InI6,"{'symprec': 0.1, 'source': 'spglib', 'symbol': 'Fm-3m', 'number': 225, 'point_group': 'm-3m', 'crystal_system': 'cubic', 'hall': '-F 4 2 3'}",mp-1114511,0.0934672236666669,1.2639,"['I', 'In', 'K', 'Rb']",[5.011682979953523]
226,Cs2KInI6,"{'symprec': 0.1, 'source': 'spglib', 'symbol': 'Fm-3m', 'number': 225, 'point_group': 'm-3m', 'crystal_system': 'cubic', 'hall': '-F 4 2 3'}",mp-1113045,0.0562667517499995,1.266,"['Cs', 'I', 'In', 'K']",[4.52401343441422]
227,Cs2LiMoI6,"{'symprec': 0.1, 'source': 'spglib', 'symbol': 'Fm-3m', 'number': 225, 'point_group': 'm-3m', 'crystal_system': 'cubic', 'hall': '-F 4 2 3'}",mp-1113011,0.0858947857083349,1.2700999999999998,"['Cs', 'I', 'Li', 'Mo']",[4.797968963750405]
228,Cs2LiMoBr6,"{'symprec': 0.1, 'source': 'spglib', 'symbol': 'Fm-3m', 'number': 225, 'point_group': 'm-3m', 'crystal_system': 'cubic', 'hall': '-F 4 2 3'}",mp-1113013,0.0475572964999995,1.2713,"['Br', 'Cs', 'Li', 'Mo']",[4.466548057750741]
229,Rb2LiMoBr6,"{'symprec': 0.1, 'source': 'spglib', 'symbol': 'Fm-3m', 'number': 225, 'point_group': 'm-3m', 'crystal_system': 'cubic', 'hall': '-F 4 2 3'}",mp-1114422,0.0546301179583319,1.2722,"['Br', 'Li', 'Mo', 'Rb']",[4.537501723405901]
230,Rb2InSbCl6,"{'symprec': 0.1, 'source': 'spglib', 'symbol': 'Fm-3m', 'number': 225, 'point_group': 'm-3m', 'crystal_system': 'cubic', 'hall': '-F 4 2 3'}",mp-1114525,0.0274277633749977,1.2944999999999998,"['Cl', 'In', 'Rb', 'Sb']",[]
231,Cs2HgPdCl6,"{'symprec': 0.1, 'source': 'spglib', 'symbol': 'I4/mmm', 'number': 139, 'point_group': '4/mmm', 'crystal_system': 'tetragonal', 'hall': '-I 4 2'}",mp-1079232,0.0016723510500007,1.2978999999999998,"['Cl', 'Cs', 'Hg', 'Pd']","[4.02198775312894, 4.015650570583176]"
232,Cs2GaAgCl6,"{'symprec': 0.1, 'source': 'spglib', 'symbol': 'Fm-3m', 'number': 225, 'point_group': 'm-3m', 'crystal_system': 'cubic', 'hall': '-F 4 2 3'}",mp-1113623,0.0682543440000014,1.3071000000000002,"['Ag', 'Cl', 'Cs', 'Ga']",[4.043647453276685]
233,Rb2InAgCl6,"{'symprec': 0.1, 'source': 'spglib', 'symbol': 'Fm-3m', 'number': 225, 'point_group': 'm-3m', 'crystal_system': 'cubic', 'hall': '-F 4 2 3'}",mp-1113761,0.0,1.3232,"['Ag', 'Cl', 'In', 'Rb']",[4.329074615865417]
234,Cs2ICl6F,"{'symprec': 0.1, 'source': 'spglib', 'symbol': 'Fm-3m', 'number': 225, 'point_group': 'm-3m', 'crystal_system': 'cubic', 'hall': '-F 4 2 3'}",mp-989516,0.0,1.348,"['Cs', 'I', 'Cl', 'F']",[]
235,Cs2TlBiI6,"{'symprec': 0.1, 'source': 'spglib', 'symbol': 'Fm-3m', 'number': 225, 'point_group': 'm-3m', 'crystal_system': 'cubic', 'hall': '-F 4 2 3'}",mp-1112501,0.0235212105000011,1.3723,"['Bi', 'Cs', 'I', 'Tl']",[5.319522836805537]
236,Cs2InAgCl6,"{'symprec': 0.1, 'source': 'spglib', 'symbol': 'Fm-3m', 'number': 225, 'point_group': 'm-3m', 'crystal_system': 'cubic', 'hall': '-F 4 2 3'}",mp-1096926,0.0,1.3724,"['Ag', 'Cl', 'Cs', 'In']",[4.026911256841516]
237,Cs2KTlBr6,"{'symprec': 0.1, 'source': 'spglib', 'symbol': 'Fm-3m', 'number': 225, 'point_group': 'm-3m', 'crystal_system': 'cubic', 'hall': '-F 4 2 3'}",mp-1113030,0.0203789092499997,1.3744999999999998,"['Br', 'Cs', 'K', 'Tl']",[4.433685812590162]
238,Cs2NaCrCl6,"{'symprec': 0.1, 'source': 'spglib', 'symbol': 'Fm-3m', 'number': 225, 'point_group': 'm-3m', 'crystal_system': 'cubic', 'hall': '-F 4 2 3'}",mp-1205696,0.0,1.3791000000000002,"['Cl', 'Cr', 'Cs', 'Na']",[4.111771815198844]
239,Cs2InSbCl6,"{'symprec': 0.1, 'source': 'spglib', 'symbol': 'Fm-3m', 'number': 225, 'point_group': 'm-3m', 'crystal_system': 'cubic', 'hall': '-F 4 2 3'}",mp-1112887,0.0609939971666704,1.384,"['Cl', 'Cs', 'In', 'Sb']",[]
240,Cs2NaMoI6,"{'symprec': 0.1, 'source': 'spglib', 'symbol': 'Fm-3m', 'number': 225, 'point_group': 'm-3m', 'crystal_system': 'cubic', 'hall': '-F 4 2 3'}",mp-1112148,0.0713757132083348,1.3989000000000005,"['Cs', 'I', 'Mo', 'Na']",[4.513852161299887]
241,Cs2RbInI6,"{'symprec': 0.1, 'source': 'spglib', 'symbol': 'Fm-3m', 'number': 225, 'point_group': 'm-3m', 'crystal_system': 'cubic', 'hall': '-F 4 2 3'}",mp-1112521,0.0654839687499992,1.3992,"['Cs', 'I', 'In', 'Rb']",[5.705057939650627]
242,KRb2TlBr6,"{'symprec': 0.1, 'source': 'spglib', 'symbol': 'Fm-3m', 'number': 225, 'point_group': 'm-3m', 'crystal_system': 'cubic', 'hall': '-F 4 2 3'}",mp-1114413,0.0504750892500007,1.4021,"['Br', 'K', 'Rb', 'Tl']",[5.088537494732616]
243,Rb2TlInI6,"{'symprec': 0.1, 'source': 'spglib', 'symbol': 'Fm-3m', 'number': 225, 'point_group': 'm-3m', 'crystal_system': 'cubic', 'hall': '-F 4 2 3'}",mp-1114396,0.0760457556666676,1.4026999999999998,"['I', 'In', 'Rb', 'Tl']",[5.244511102232506]
244,Rb2NaCrCl6,"{'symprec': 0.1, 'source': 'spglib', 'symbol': 'Fm-3m', 'number': 225, 'point_group': 'm-3m', 'crystal_system': 'cubic', 'hall': '-F 4 2 3'}",mp-1206059,0.0,1.4031,"['Cl', 'Cr', 'Na', 'Rb']",[4.229311424364017]
245,Cs2TlInI6,"{'symprec': 0.1, 'source': 'spglib', 'symbol': 'Fm-3m', 'number': 225, 'point_group': 'm-3m', 'crystal_system': 'cubic', 'hall': '-F 4 2 3'}",mp-1112107,0.0395011467499992,1.4066999999999998,"['Cs', 'I', 'In', 'Tl']",[4.623750647539976]